# vtk DataFile Version 2.0
cantilever_Q4P1_mix
ASCII
DATASET POLYDATA
POINTS 4257 float
0.000000 -6.000000 0.000000
48.000000 -6.000000 0.000000
48.000000 6.000000 0.000000
0.000000 6.000000 0.000000
0.375000 -6.000000 0.000000
0.750000 -6.000000 0.000000
1.125000 -6.000000 0.000000
1.500000 -6.000000 0.000000
1.875000 -6.000000 0.000000
2.250000 -6.000000 0.000000
2.625000 -6.000000 0.000000
3.000000 -6.000000 0.000000
3.375000 -6.000000 0.000000
3.750000 -6.000000 0.000000
4.125000 -6.000000 0.000000
4.500000 -6.000000 0.000000
4.875000 -6.000000 0.000000
5.250000 -6.000000 0.000000
5.625000 -6.000000 0.000000
6.000000 -6.000000 0.000000
6.375000 -6.000000 0.000000
6.750000 -6.000000 0.000000
7.125000 -6.000000 0.000000
7.500000 -6.000000 0.000000
7.875000 -6.000000 0.000000
8.250000 -6.000000 0.000000
8.625000 -6.000000 0.000000
9.000000 -6.000000 0.000000
9.375000 -6.000000 0.000000
9.750000 -6.000000 0.000000
10.125000 -6.000000 0.000000
10.500000 -6.000000 0.000000
10.875000 -6.000000 0.000000
11.250000 -6.000000 0.000000
11.625000 -6.000000 0.000000
12.000000 -6.000000 0.000000
12.375000 -6.000000 0.000000
12.750000 -6.000000 0.000000
13.125000 -6.000000 0.000000
13.500000 -6.000000 0.000000
13.875000 -6.000000 0.000000
14.250000 -6.000000 0.000000
14.625000 -6.000000 0.000000
15.000000 -6.000000 0.000000
15.375000 -6.000000 0.000000
15.750000 -6.000000 0.000000
16.125000 -6.000000 0.000000
16.500000 -6.000000 0.000000
16.875000 -6.000000 0.000000
17.250000 -6.000000 0.000000
17.625000 -6.000000 0.000000
18.000000 -6.000000 0.000000
18.375000 -6.000000 0.000000
18.750000 -6.000000 0.000000
19.125000 -6.000000 0.000000
19.500000 -6.000000 0.000000
19.875000 -6.000000 0.000000
20.250000 -6.000000 0.000000
20.625000 -6.000000 0.000000
21.000000 -6.000000 0.000000
21.375000 -6.000000 0.000000
21.750000 -6.000000 0.000000
22.125000 -6.000000 0.000000
22.500000 -6.000000 0.000000
22.875000 -6.000000 0.000000
23.250000 -6.000000 0.000000
23.625000 -6.000000 0.000000
24.000000 -6.000000 0.000000
24.375000 -6.000000 0.000000
24.750000 -6.000000 0.000000
25.125000 -6.000000 0.000000
25.500000 -6.000000 0.000000
25.875000 -6.000000 0.000000
26.250000 -6.000000 0.000000
26.625000 -6.000000 0.000000
27.000000 -6.000000 0.000000
27.375000 -6.000000 0.000000
27.750000 -6.000000 0.000000
28.125000 -6.000000 0.000000
28.500000 -6.000000 0.000000
28.875000 -6.000000 0.000000
29.250000 -6.000000 0.000000
29.625000 -6.000000 0.000000
30.000000 -6.000000 0.000000
30.375000 -6.000000 0.000000
30.750000 -6.000000 0.000000
31.125000 -6.000000 0.000000
31.500000 -6.000000 0.000000
31.875000 -6.000000 0.000000
32.250000 -6.000000 0.000000
32.625000 -6.000000 0.000000
33.000000 -6.000000 0.000000
33.375000 -6.000000 0.000000
33.750000 -6.000000 0.000000
34.125000 -6.000000 0.000000
34.500000 -6.000000 0.000000
34.875000 -6.000000 0.000000
35.250000 -6.000000 0.000000
35.625000 -6.000000 0.000000
36.000000 -6.000000 0.000000
36.375000 -6.000000 0.000000
36.750000 -6.000000 0.000000
37.125000 -6.000000 0.000000
37.500000 -6.000000 0.000000
37.875000 -6.000000 0.000000
38.250000 -6.000000 0.000000
38.625000 -6.000000 0.000000
39.000000 -6.000000 0.000000
39.375000 -6.000000 0.000000
39.750000 -6.000000 0.000000
40.125000 -6.000000 0.000000
40.500000 -6.000000 0.000000
40.875000 -6.000000 0.000000
41.250000 -6.000000 0.000000
41.625000 -6.000000 0.000000
42.000000 -6.000000 0.000000
42.375000 -6.000000 0.000000
42.750000 -6.000000 0.000000
43.125000 -6.000000 0.000000
43.500000 -6.000000 0.000000
43.875000 -6.000000 0.000000
44.250000 -6.000000 0.000000
44.625000 -6.000000 0.000000
45.000000 -6.000000 0.000000
45.375000 -6.000000 0.000000
45.750000 -6.000000 0.000000
46.125000 -6.000000 0.000000
46.500000 -6.000000 0.000000
46.875000 -6.000000 0.000000
47.250000 -6.000000 0.000000
47.625000 -6.000000 0.000000
48.000000 -5.625000 0.000000
48.000000 -5.250000 0.000000
48.000000 -4.875000 0.000000
48.000000 -4.500000 0.000000
48.000000 -4.125000 0.000000
48.000000 -3.750000 0.000000
48.000000 -3.375000 0.000000
48.000000 -3.000000 0.000000
48.000000 -2.625000 0.000000
48.000000 -2.250000 0.000000
48.000000 -1.875000 0.000000
48.000000 -1.500000 0.000000
48.000000 -1.125000 0.000000
48.000000 -0.750000 0.000000
48.000000 -0.375000 0.000000
48.000000 -0.000000 0.000000
48.000000 0.375000 0.000000
48.000000 0.750000 0.000000
48.000000 1.125000 0.000000
48.000000 1.500000 0.000000
48.000000 1.875000 0.000000
48.000000 2.250000 0.000000
48.000000 2.625000 0.000000
48.000000 3.000000 0.000000
48.000000 3.375000 0.000000
48.000000 3.750000 0.000000
48.000000 4.125000 0.000000
48.000000 4.500000 0.000000
48.000000 4.875000 0.000000
48.000000 5.250000 0.000000
48.000000 5.625000 0.000000
47.625000 6.000000 0.000000
47.250000 6.000000 0.000000
46.875000 6.000000 0.000000
46.500000 6.000000 0.000000
46.125000 6.000000 0.000000
45.750000 6.000000 0.000000
45.375000 6.000000 0.000000
45.000000 6.000000 0.000000
44.625000 6.000000 0.000000
44.250000 6.000000 0.000000
43.875000 6.000000 0.000000
43.500000 6.000000 0.000000
43.125000 6.000000 0.000000
42.750000 6.000000 0.000000
42.375000 6.000000 0.000000
42.000000 6.000000 0.000000
41.625000 6.000000 0.000000
41.250000 6.000000 0.000000
40.875000 6.000000 0.000000
40.500000 6.000000 0.000000
40.125000 6.000000 0.000000
39.750000 6.000000 0.000000
39.375000 6.000000 0.000000
39.000000 6.000000 0.000000
38.625000 6.000000 0.000000
38.250000 6.000000 0.000000
37.875000 6.000000 0.000000
37.500000 6.000000 0.000000
37.125000 6.000000 0.000000
36.750000 6.000000 0.000000
36.375000 6.000000 0.000000
36.000000 6.000000 0.000000
35.625000 6.000000 0.000000
35.250000 6.000000 0.000000
34.875000 6.000000 0.000000
34.500000 6.000000 0.000000
34.125000 6.000000 0.000000
33.750000 6.000000 0.000000
33.375000 6.000000 0.000000
33.000000 6.000000 0.000000
32.625000 6.000000 0.000000
32.250000 6.000000 0.000000
31.875000 6.000000 0.000000
31.500000 6.000000 0.000000
31.125000 6.000000 0.000000
30.750000 6.000000 0.000000
30.375000 6.000000 0.000000
30.000000 6.000000 0.000000
29.625000 6.000000 0.000000
29.250000 6.000000 0.000000
28.875000 6.000000 0.000000
28.500000 6.000000 0.000000
28.125000 6.000000 0.000000
27.750000 6.000000 0.000000
27.375000 6.000000 0.000000
27.000000 6.000000 0.000000
26.625000 6.000000 0.000000
26.250000 6.000000 0.000000
25.875000 6.000000 0.000000
25.500000 6.000000 0.000000
25.125000 6.000000 0.000000
24.750000 6.000000 0.000000
24.375000 6.000000 0.000000
24.000000 6.000000 0.000000
23.625000 6.000000 0.000000
23.250000 6.000000 0.000000
22.875000 6.000000 0.000000
22.500000 6.000000 0.000000
22.125000 6.000000 0.000000
21.750000 6.000000 0.000000
21.375000 6.000000 0.000000
21.000000 6.000000 0.000000
20.625000 6.000000 0.000000
20.250000 6.000000 0.000000
19.875000 6.000000 0.000000
19.500000 6.000000 0.000000
19.125000 6.000000 0.000000
18.750000 6.000000 0.000000
18.375000 6.000000 0.000000
18.000000 6.000000 0.000000
17.625000 6.000000 0.000000
17.250000 6.000000 0.000000
16.875000 6.000000 0.000000
16.500000 6.000000 0.000000
16.125000 6.000000 0.000000
15.750000 6.000000 0.000000
15.375000 6.000000 0.000000
15.000000 6.000000 0.000000
14.625000 6.000000 0.000000
14.250000 6.000000 0.000000
13.875000 6.000000 0.000000
13.500000 6.000000 0.000000
13.125000 6.000000 0.000000
12.750000 6.000000 0.000000
12.375000 6.000000 0.000000
12.000000 6.000000 0.000000
11.625000 6.000000 0.000000
11.250000 6.000000 0.000000
10.875000 6.000000 0.000000
10.500000 6.000000 0.000000
10.125000 6.000000 0.000000
9.750000 6.000000 0.000000
9.375000 6.000000 0.000000
9.000000 6.000000 0.000000
8.625000 6.000000 0.000000
8.250000 6.000000 0.000000
7.875000 6.000000 0.000000
7.500000 6.000000 0.000000
7.125000 6.000000 0.000000
6.750000 6.000000 0.000000
6.375000 6.000000 0.000000
6.000000 6.000000 0.000000
5.625000 6.000000 0.000000
5.250000 6.000000 0.000000
4.875000 6.000000 0.000000
4.500000 6.000000 0.000000
4.125000 6.000000 0.000000
3.750000 6.000000 0.000000
3.375000 6.000000 0.000000
3.000000 6.000000 0.000000
2.625000 6.000000 0.000000
2.250000 6.000000 0.000000
1.875000 6.000000 0.000000
1.500000 6.000000 0.000000
1.125000 6.000000 0.000000
0.750000 6.000000 0.000000
0.375000 6.000000 0.000000
0.000000 5.625000 0.000000
0.000000 5.250000 0.000000
0.000000 4.875000 0.000000
0.000000 4.500000 0.000000
0.000000 4.125000 0.000000
0.000000 3.750000 0.000000
0.000000 3.375000 0.000000
0.000000 3.000000 0.000000
0.000000 2.625000 0.000000
0.000000 2.250000 0.000000
0.000000 1.875000 0.000000
0.000000 1.500000 0.000000
0.000000 1.125000 0.000000
0.000000 0.750000 0.000000
0.000000 0.375000 0.000000
0.000000 0.000000 0.000000
0.000000 -0.375000 0.000000
0.000000 -0.750000 0.000000
0.000000 -1.125000 0.000000
0.000000 -1.500000 0.000000
0.000000 -1.875000 0.000000
0.000000 -2.250000 0.000000
0.000000 -2.625000 0.000000
0.000000 -3.000000 0.000000
0.000000 -3.375000 0.000000
0.000000 -3.750000 0.000000
0.000000 -4.125000 0.000000
0.000000 -4.500000 0.000000
0.000000 -4.875000 0.000000
0.000000 -5.250000 0.000000
0.000000 -5.625000 0.000000
0.375000 -5.625000 0.000000
0.375000 -5.250000 0.000000
0.375000 -4.875000 0.000000
0.375000 -4.500000 0.000000
0.375000 -4.125000 0.000000
0.375000 -3.750000 0.000000
0.375000 -3.375000 0.000000
0.375000 -3.000000 0.000000
0.375000 -2.625000 0.000000
0.375000 -2.250000 0.000000
0.375000 -1.875000 0.000000
0.375000 -1.500000 0.000000
0.375000 -1.125000 0.000000
0.375000 -0.750000 0.000000
0.375000 -0.375000 0.000000
0.375000 0.000000 0.000000
0.375000 0.375000 0.000000
0.375000 0.750000 0.000000
0.375000 1.125000 0.000000
0.375000 1.500000 0.000000
0.375000 1.875000 0.000000
0.375000 2.250000 0.000000
0.375000 2.625000 0.000000
0.375000 3.000000 0.000000
0.375000 3.375000 0.000000
0.375000 3.750000 0.000000
0.375000 4.125000 0.000000
0.375000 4.500000 0.000000
0.375000 4.875000 0.000000
0.375000 5.250000 0.000000
0.375000 5.625000 0.000000
[...]
POINT_DATA 4257
VECTORS U float
-0.000001 0.001499 0.000000
0.012009 0.068546 0.000000
-0.012009 0.068546 0.000000
0.000001 0.001499 0.000000
0.000186 0.001528 0.000000
0.000372 0.001569 0.000000
0.000556 0.001622 0.000000
0.000738 0.001686 0.000000
0.000919 0.001761 0.000000
0.001099 0.001848 0.000000
0.001277 0.001945 0.000000
0.001454 0.002054 0.000000
0.001629 0.002174 0.000000
0.001802 0.002305 0.000000
0.001975 0.002446 0.000000
0.002146 0.002598 0.000000
0.002315 0.002761 0.000000
0.002483 0.002934 0.000000
0.002649 0.003118 0.000000
0.002814 0.003312 0.000000
0.002977 0.003517 0.000000
0.003139 0.003732 0.000000
0.003300 0.003956 0.000000
0.003459 0.004191 0.000000
0.003617 0.004435 0.000000
0.003773 0.004690 0.000000
0.003927 0.004954 0.000000
0.004081 0.005228 0.000000
0.004232 0.005511 0.000000
0.004383 0.005803 0.000000
0.004531 0.006106 0.000000
0.004679 0.006417 0.000000
0.004825 0.006737 0.000000
0.004969 0.007067 0.000000
0.005112 0.007405 0.000000
0.005253 0.007753 0.000000
0.005393 0.008109 0.000000
0.005532 0.008474 0.000000
0.005669 0.008847 0.000000
0.005805 0.009229 0.000000
0.005939 0.009620 0.000000
0.006071 0.010018 0.000000
0.006203 0.010425 0.000000
0.006332 0.010841 0.000000
0.006461 0.011264 0.000000
0.006587 0.011695 0.000000
0.006713 0.012134 0.000000
0.006837 0.012581 0.000000
0.006959 0.013036 0.000000
0.007080 0.013498 0.000000
0.007200 0.013967 0.000000
0.007318 0.014444 0.000000
0.007434 0.014929 0.000000
0.007549 0.015421 0.000000
0.007663 0.015919 0.000000
0.007775 0.016425 0.000000
0.007886 0.016938 0.000000
0.007995 0.017458 0.000000
0.008103 0.017984 0.000000
0.008209 0.018518 0.000000
0.008314 0.019057 0.000000
0.008417 0.019604 0.000000
0.008519 0.020156 0.000000
0.008619 0.020715 0.000000
0.008718 0.021281 0.000000
0.008816 0.021852 0.000000
0.008912 0.022429 0.000000
0.009006 0.023013 0.000000
0.009099 0.023602 0.000000
0.009191 0.024197 0.000000
0.009281 0.024798 0.000000
0.009370 0.025404 0.000000
0.009457 0.026016 0.000000
0.009543 0.026633 0.000000
0.009627 0.027256 0.000000
0.009710 0.027883 0.000000
0.009791 0.028516 0.000000
0.009871 0.029154 0.000000
0.009950 0.029797 0.000000
0.010027 0.030445 0.000000
0.010102 0.031097 0.000000
0.010176 0.031755 0.000000
0.010249 0.032416 0.000000
0.010320 0.033082 0.000000
0.010390 0.033753 0.000000
0.010458 0.034428 0.000000
0.010524 0.035107 0.000000
0.010590 0.035790 0.000000
0.010653 0.036478 0.000000
0.010716 0.037169 0.000000
0.010777 0.037864 0.000000
0.010836 0.038563 0.000000
0.010894 0.039265 0.000000
0.010950 0.039972 0.000000
0.011005 0.040681 0.000000
0.011059 0.041394 0.000000
0.011111 0.042110 0.000000
0.011161 0.042830 0.000000
0.011211 0.043552 0.000000
0.011258 0.044278 0.000000
0.011304 0.045006 0.000000
0.011349 0.045738 0.000000
0.011392 0.046472 0.000000
0.011434 0.047209 0.000000
0.011474 0.047948 0.000000
0.011513 0.048690 0.000000
0.011551 0.049434 0.000000
0.011587 0.050181 0.000000
0.011621 0.050929 0.000000
0.011654 0.051680 0.000000
0.011686 0.052433 0.000000
0.011716 0.053188 0.000000
0.011744 0.053944 0.000000
0.011771 0.054703 0.000000
0.011797 0.055463 0.000000
0.011821 0.056224 0.000000
0.011844 0.056987 0.000000
0.011865 0.057751 0.000000
0.011885 0.058517 0.000000
0.011903 0.059284 0.000000
0.011920 0.060052 0.000000
0.011936 0.060821 0.000000
0.011949 0.061591 0.000000
0.011962 0.062361 0.000000
0.011973 0.063133 0.000000
0.011982 0.063905 0.000000
0.011991 0.064677 0.000000
0.011997 0.065450 0.000000
0.012002 0.066224 0.000000
0.012006 0.066998 0.000000
0.012008 0.067772 0.000000
0.011237 0.068546 0.000000
0.010469 0.068546 0.000000
0.009705 0.068546 0.000000
0.008945 0.068546 0.000000
0.008188 0.068546 0.000000
0.007434 0.068545 0.000000
0.006683 0.068545 0.000000
0.005934 0.068545 0.000000
0.005187 0.068545 0.000000
0.004443 0.068545 0.000000
0.003700 0.068545 0.000000
0.002958 0.068545 0.000000
0.002218 0.068545 0.000000
0.001478 0.068545 0.000000
0.000739 0.068545 0.000000
-0.000000 0.068545 0.000000
-0.000739 0.068545 0.000000
-0.001478 0.068545 0.000000
-0.002218 0.068545 0.000000
-0.002958 0.068545 0.000000
-0.003700 0.068545 0.000000
-0.004443 0.068545 0.000000
-0.005187 0.068545 0.000000
-0.005934 0.068545 0.000000
-0.006683 0.068545 0.000000
-0.007434 0.068545 0.000000
-0.008188 0.068546 0.000000
-0.008945 0.068546 0.000000
-0.009705 0.068546 0.000000
-0.010469 0.068546 0.000000
-0.011237 0.068546 0.000000
-0.012008 0.067772 0.000000
-0.012006 0.066998 0.000000
-0.012002 0.066224 0.000000
-0.011997 0.065450 0.000000
-0.011991 0.064677 0.000000
-0.011982 0.063905 0.000000
-0.011973 0.063133 0.000000
-0.011962 0.062361 0.000000
-0.011949 0.061591 0.000000
-0.011936 0.060821 0.000000
-0.011920 0.060052 0.000000
-0.011903 0.059284 0.000000
-0.011885 0.058517 0.000000
-0.011865 0.057751 0.000000
-0.011844 0.056987 0.000000
-0.011821 0.056224 0.000000
-0.011797 0.055463 0.000000
-0.011771 0.054703 0.000000
-0.011744 0.053944 0.000000
-0.011716 0.053188 0.000000
-0.011686 0.052433 0.000000
-0.011654 0.051680 0.000000
-0.011621 0.050929 0.000000
-0.011587 0.050181 0.000000
-0.011551 0.049434 0.000000
-0.011513 0.048690 0.000000
-0.011474 0.047948 0.000000
-0.011434 0.047209 0.000000
-0.011392 0.046472 0.000000
-0.011349 0.045738 0.000000
-0.011304 0.045006 0.000000
-0.011258 0.044278 0.000000
-0.011211 0.043552 0.000000
-0.011161 0.042830 0.000000
-0.011111 0.042110 0.000000
-0.011059 0.041394 0.000000
-0.011005 0.040681 0.000000
-0.010950 0.039972 0.000000
-0.010894 0.039265 0.000000
-0.010836 0.038563 0.000000
-0.010777 0.037864 0.000000
-0.010716 0.037169 0.000000
-0.010653 0.036478 0.000000
-0.010590 0.035790 0.000000
-0.010524 0.035107 0.000000
-0.010458 0.034428 0.000000
-0.010390 0.033753 0.000000
-0.010320 0.033082 0.000000
-0.010249 0.032416 0.000000
-0.010176 0.031755 0.000000
-0.010102 0.031097 0.000000
-0.010027 0.030445 0.000000
-0.009950 0.029797 0.000000
-0.009871 0.029154 0.000000
-0.009791 0.028516 0.000000
-0.009710 0.027883 0.000000
-0.009627 0.027256 0.000000
-0.009543 0.026633 0.000000
-0.009457 0.026016 0.000000
-0.009370 0.025404 0.000000
-0.009281 0.024798 0.000000
-0.009191 0.024197 0.000000
-0.009099 0.023602 0.000000
-0.009006 0.023013 0.000000
-0.008912 0.022429 0.000000
-0.008816 0.021852 0.000000
-0.008718 0.021281 0.000000
-0.008619 0.020715 0.000000
-0.008519 0.020156 0.000000
-0.008417 0.019604 0.000000
-0.008314 0.019057 0.000000
-0.008209 0.018518 0.000000
-0.008103 0.017984 0.000000
-0.007995 0.017458 0.000000
-0.007886 0.016938 0.000000
-0.007775 0.016425 0.000000
-0.007663 0.015919 0.000000
-0.007549 0.015421 0.000000
-0.007434 0.014929 0.000000
-0.007318 0.014444 0.000000
-0.007200 0.013967 0.000000
-0.007080 0.013498 0.000000
-0.006959 0.013036 0.000000
-0.006837 0.012581 0.000000
-0.006713 0.012134 0.000000
-0.006587 0.011695 0.000000
-0.006461 0.011264 0.000000
-0.006332 0.010841 0.000000
-0.006203 0.010425 0.000000
-0.006071 0.010018 0.000000
-0.005939 0.009620 0.000000
-0.005805 0.009229 0.000000
-0.005669 0.008847 0.000000
-0.005532 0.008474 0.000000
-0.005393 0.008109 0.000000
-0.005253 0.007753 0.000000
-0.005112 0.007405 0.000000
-0.004969 0.007067 0.000000
-0.004825 0.006737 0.000000
-0.004679 0.006417 0.000000
-0.004531 0.006106 0.000000
-0.004383 0.005803 0.000000
-0.004232 0.005511 0.000000
-0.004081 0.005228 0.000000
-0.003927 0.004954 0.000000
-0.003773 0.004690 0.000000
-0.003617 0.004435 0.000000
-0.003459 0.004191 0.000000
-0.003300 0.003956 0.000000
-0.003139 0.003732 0.000000
-0.002977 0.003517 0.000000
-0.002814 0.003312 0.000000
-0.002649 0.003118 0.000000
-0.002483 0.002934 0.000000
-0.002315 0.002761 0.000000
-0.002146 0.002598 0.000000
-0.001975 0.002446 0.000000
-0.001802 0.002305 0.000000
-0.001629 0.002174 0.000000
-0.001454 0.002054 0.000000
-0.001277 0.001945 0.000000
-0.001099 0.001848 0.000000
-0.000919 0.001761 0.000000
-0.000738 0.001686 0.000000
-0.000556 0.001622 0.000000
-0.000372 0.001569 0.000000
-0.000186 0.001528 0.000000
0.000022 0.001317 0.000000
0.000039 0.001147 0.000000
0.000052 0.000989 0.000000
0.000062 0.000842 0.000000
0.000068 0.000708 0.000000
0.000072 0.000584 0.000000
0.000072 0.000473 0.000000
0.000071 0.000374 0.000000
0.000067 0.000286 0.000000
0.000061 0.000209 0.000000
0.000053 0.000145 0.000000
0.000044 0.000092 0.000000
0.000034 0.000051 0.000000
0.000023 0.000022 0.000000
0.000012 0.000004 0.000000
-0.000000 -0.000001 0.000000
-0.000012 0.000004 0.000000
-0.000023 0.000022 0.000000
-0.000034 0.000051 0.000000
-0.000044 0.000092 0.000000
-0.000053 0.000145 0.000000
-0.000061 0.000209 0.000000
-0.000067 0.000286 0.000000
-0.000071 0.000374 0.000000
-0.000072 0.000473 0.000000
-0.000072 0.000584 0.000000
-0.000068 0.000708 0.000000
-0.000062 0.000842 0.000000
-0.000052 0.000989 0.000000
-0.000039 0.001147 0.000000
-0.000022 0.001317 0.000000
0.000153 0.001348 0.000000
0.000125 0.001179 0.000000
0.000100 0.001022 0.000000
0.000078 0.000877 0.000000
0.000060 0.000743 0.000000
0.000045 0.000621 0.000000
0.000033 0.000510 0.000000
0.000023 0.000412 0.000000
0.000015 0.000324 0.000000
0.000009 0.000249 0.000000
0.000005 0.000185 0.000000
0.000003 0.000132 0.000000
0.000001 0.000092 0.000000
0.000000 0.000063 0.000000
-0.000000 0.000045 0.000000
0.000000 0.000039 0.000000
0.000000 0.000045 0.000000
-0.000000 0.000063 0.000000
-0.000001 0.000092 0.000000
-0.000003 0.000132 0.000000
-0.000005 0.000185 0.000000
-0.000009 0.000249 0.000000
-0.000015 0.000324 0.000000
-0.000023 0.000412 0.000000
-0.000033 0.000510 0.000000
-0.000045 0.000621 0.000000
-0.000060 0.000743 0.000000
-0.000078 0.000877 0.000000
-0.000100 0.001022 0.000000
-0.000125 0.001179 0.000000
-0.000153 0.001348 0.000000
0.000327 0.001390 0.000000
0.000287 0.001223 0.000000
0.000250 0.001067 0.000000
0.000217 0.000923 0.000000
0.000187 0.000790 0.000000
0.000161 0.000669 0.000000
0.000137 0.000559 0.000000
0.000115 0.000461 0.000000
0.000096 0.000375 0.000000
0.000079 0.000300 0.000000
0.000063 0.000236 0.000000
0.000049 0.000184 0.000000
0.000036 0.000144 0.000000
0.000023 0.000115 0.000000
0.000012 0.000098 0.000000
-0.000000 0.000092 0.000000
-0.000012 0.000098 0.000000
-0.000023 0.000115 0.000000
-0.000036 0.000144 0.000000
-0.000049 0.000184 0.000000
-0.000063 0.000236 0.000000
-0.000079 0.000300 0.000000
-0.000096 0.000375 0.000000
-0.000115 0.000461 0.000000
-0.000137 0.000559 0.000000
-0.000161 0.000669 0.000000
-0.000187 0.000790 0.000000
-0.000217 0.000923 0.000000
-0.000250 0.001067 0.000000
-0.000287 0.001223 0.000000
-0.000327 0.001390 0.000000
0.000500 0.001444 0.000000
0.000448 0.001278 0.000000
0.000400 0.001124 0.000000
0.000355 0.000980 0.000000
0.000314 0.000849 0.000000
0.000276 0.000729 0.000000
0.000240 0.000620 0.000000
0.000207 0.000522 0.000000
0.000177 0.000437 0.000000
0.000148 0.000362 0.000000
0.000121 0.000299 0.000000
0.000095 0.000248 0.000000
0.000070 0.000208 0.000000
0.000046 0.000179 0.000000
0.000023 0.000162 0.000000
-0.000000 0.000156 0.000000
-0.000023 0.000162 0.000000
-0.000046 0.000179 0.000000
-0.000070 0.000208 0.000000
-0.000095 0.000248 0.000000
-0.000121 0.000299 0.000000
-0.000148 0.000362 0.000000
-0.000177 0.000437 0.000000
-0.000207 0.000522 0.000000
-0.000240 0.000620 0.000000
-0.000276 0.000729 0.000000
-0.000314 0.000849 0.000000
-0.000355 0.000980 0.000000
-0.000400 0.001124 0.000000
-0.000448 0.001278 0.000000
-0.000500 0.001444 0.000000
0.000671 0.001510 0.000000
0.000607 0.001345 0.000000
0.000548 0.001192 0.000000
0.000492 0.001050 0.000000
0.000439 0.000919 0.000000
0.000390 0.000800 0.000000
0.000343 0.000692 0.000000
0.000299 0.000595 0.000000
0.000257 0.000510 0.000000
0.000216 0.000436 0.000000
0.000178 0.000374 0.000000
0.000141 0.000323 0.000000
0.000104 0.000283 0.000000
0.000069 0.000254 0.000000
0.000034 0.000237 0.000000
-0.000000 0.000232 0.000000
-0.000034 0.000237 0.000000
-0.000069 0.000254 0.000000
-0.000104 0.000283 0.000000
-0.000141 0.000323 0.000000
-0.000178 0.000374 0.000000
-0.000216 0.000436 0.000000
-0.000257 0.000510 0.000000
-0.000299 0.000595 0.000000
-0.000343 0.000692 0.000000
-0.000390 0.000800 0.000000
-0.000439 0.000919 0.000000
-0.000492 0.001050 0.000000
-0.000548 0.001192 0.000000
-0.000607 0.001345 0.000000
-0.000671 0.001510 0.000000
0.000841 0.001586 0.000000
0.000766 0.001423 0.000000
0.000695 0.001271 0.000000
0.000628 0.001130 0.000000
0.000564 0.001000 0.000000
0.000503 0.000882 0.000000
0.000445 0.000775 0.000000
0.000389 0.000679 0.000000
0.000336 0.000595 0.000000
0.000284 0.000521 0.000000
0.000234 0.000459 0.000000
0.000186 0.000409 0.000000
0.000138 0.000369 0.000000
0.000092 0.000341 0.000000
0.000046 0.000324 0.000000
-0.000000 0.000319 0.000000
-0.000046 0.000324 0.000000
-0.000092 0.000341 0.000000
-0.000138 0.000369 0.000000
-0.000186 0.000409 0.000000
-0.000234 0.000459 0.000000
-0.000284 0.000521 0.000000
-0.000336 0.000595 0.000000
-0.000389 0.000679 0.000000
-0.000445 0.000775 0.000000
-0.000503 0.000882 0.000000
-0.000564 0.001000 0.000000
-0.000628 0.001130 0.000000
-0.000695 0.001271 0.000000
-0.000766 0.001423 0.000000
-0.000841 0.001586 0.000000
0.001009 0.001674 0.000000
0.000923 0.001512 0.000000
0.000841 0.001361 0.000000
0.000762 0.001222 0.000000
0.000687 0.001093 0.000000
0.000615 0.000976 0.000000
0.000546 0.000869 0.000000
0.000479 0.000774 0.000000
0.000414 0.000691 0.000000
0.000352 0.000618 0.000000
0.000290 0.000557 0.000000
0.000231 0.000506 0.000000
0.000172 0.000467 0.000000
0.000114 0.000439 0.000000
0.000057 0.000422 0.000000
-0.000000 0.000417 0.000000
-0.000057 0.000422 0.000000
-0.000114 0.000439 0.000000
-0.000172 0.000467 0.000000
-0.000231 0.000506 0.000000
-0.000290 0.000557 0.000000
-0.000352 0.000618 0.000000
-0.000414 0.000691 0.000000
-0.000479 0.000774 0.000000
-0.000546 0.000869 0.000000
-0.000615 0.000976 0.000000
-0.000687 0.001093 0.000000
-0.000762 0.001222 0.000000
-0.000841 0.001361 0.000000
-0.000923 0.001512 0.000000
-0.001009 0.001674 0.000000
0.001176 0.001773 0.000000
0.001079 0.001613 0.000000
0.000986 0.001463 0.000000
0.000896 0.001324 0.000000
0.000810 0.001197 0.000000
0.000727 0.001081 0.000000
0.000646 0.000975 0.000000
0.000568 0.000881 0.000000
0.000492 0.000798 0.000000
0.000418 0.000726 0.000000
0.000346 0.000665 0.000000
0.000275 0.000615 0.000000
0.000205 0.000576 0.000000
0.000137 0.000548 0.000000
0.000068 0.000532 0.000000
-0.000000 0.000526 0.000000
-0.000068 0.000532 0.000000
-0.000137 0.000548 0.000000
-0.000205 0.000576 0.000000
-0.000275 0.000615 0.000000
-0.000346 0.000665 0.000000
-0.000418 0.000726 0.000000
-0.000492 0.000798 0.000000
-0.000568 0.000881 0.000000
-0.000646 0.000975 0.000000
-0.000727 0.001081 0.000000
-0.000810 0.001197 0.000000
-0.000896 0.001324 0.000000
-0.000986 0.001463 0.000000
-0.001079 0.001613 0.000000
-0.001176 0.001773 0.000000
0.001341 0.001884 0.000000
0.001233 0.001724 0.000000
0.001129 0.001576 0.000000
0.001029 0.001438 0.000000
0.000931 0.001312 0.000000
0.000837 0.001196 0.000000
0.000745 0.001092 0.000000
0.000656 0.000999 0.000000
0.000569 0.000916 0.000000
0.000485 0.000845 0.000000
0.000401 0.000784 0.000000
0.000319 0.000735 0.000000
0.000239 0.000696 0.000000
0.000159 0.000669 0.000000
0.000079 0.000652 0.000000
-0.000000 0.000647 0.000000
-0.000079 0.000652 0.000000
-0.000159 0.000669 0.000000
-0.000239 0.000696 0.000000
-0.000319 0.000735 0.000000
-0.000401 0.000784 0.000000
-0.000485 0.000845 0.000000
-0.000569 0.000916 0.000000
-0.000656 0.000999 0.000000
-0.000745 0.001092 0.000000
-0.000837 0.001196 0.000000
-0.000931 0.001312 0.000000
-0.001029 0.001438 0.000000
-0.001129 0.001576 0.000000
-0.001233 0.001724 0.000000
-0.001341 0.001884 0.000000
0.001506 0.002005 0.000000
0.001387 0.001847 0.000000
0.001272 0.001700 0.000000
0.001160 0.001563 0.000000
0.001052 0.001438 0.000000
0.000946 0.001323 0.000000
0.000844 0.001220 0.000000
0.000744 0.001127 0.000000
0.000646 0.001045 0.000000
0.000550 0.000974 0.000000
0.000456 0.000915 0.000000
0.000363 0.000865 0.000000
0.000271 0.000827 0.000000
0.000180 0.000800 0.000000
0.000090 0.000784 0.000000
-0.000000 0.000778 0.000000
-0.000090 0.000784 0.000000
-0.000180 0.000800 0.000000
-0.000271 0.000827 0.000000
-0.000363 0.000865 0.000000
-0.000456 0.000915 0.000000
-0.000550 0.000974 0.000000
-0.000646 0.001045 0.000000
-0.000744 0.001127 0.000000
-0.000844 0.001220 0.000000
-0.000946 0.001323 0.000000
-0.001052 0.001438 0.000000
-0.001160 0.001563 0.000000
-0.001272 0.001700 0.000000
-0.001387 0.001847 0.000000
-0.001506 0.002005 0.000000
0.001669 0.002137 0.000000
0.001539 0.001980 0.000000
0.001413 0.001834 0.000000
0.001290 0.001699 0.000000
0.001171 0.001575 0.000000
0.001055 0.001461 0.000000
0.000942 0.001359 0.000000
0.000831 0.001267 0.000000
0.000722 0.001186 0.000000
0.000615 0.001115 0.000000
0.000510 0.001056 0.000000
0.000407 0.001007 0.000000
0.000304 0.000969 0.000000
0.000202 0.000942 0.000000
0.000101 0.000926 0.000000
-0.000000 0.000921 0.000000
-0.000101 0.000926 0.000000
-0.000202 0.000942 0.000000
-0.000304 0.000969 0.000000
-0.000407 0.001007 0.000000
-0.000510 0.001056 0.000000
-0.000615 0.001115 0.000000
-0.000722 0.001186 0.000000
-0.000831 0.001267 0.000000
-0.000942 0.001359 0.000000
-0.001055 0.001461 0.000000
-0.001171 0.001575 0.000000
-0.001290 0.001699 0.000000
-0.001413 0.001834 0.000000
-0.001539 0.001980 0.000000
-0.001669 0.002137 0.000000
0.001830 0.002280 0.000000
0.001689 0.002124 0.000000
0.001553 0.001980 0.000000
0.001419 0.001846 0.000000
0.001290 0.001722 0.000000
0.001163 0.001610 0.000000
0.001039 0.001508 0.000000
0.000917 0.001417 0.000000
0.000798 0.001336 0.000000
0.000680 0.001267 0.000000
0.000564 0.001208 0.000000
0.000450 0.001160 0.000000
0.000336 0.001122 0.000000
0.000224 0.001095 0.000000
0.000112 0.001079 0.000000
-0.000000 0.001074 0.000000
-0.000112 0.001079 0.000000
-0.000224 0.001095 0.000000
-0.000336 0.001122 0.000000
-0.000450 0.001160 0.000000
-0.000564 0.001208 0.000000
-0.000680 0.001267 0.000000
-0.000798 0.001336 0.000000
-0.000917 0.001417 0.000000
-0.001039 0.001508 0.000000
-0.001163 0.001610 0.000000
-0.001290 0.001722 0.000000
-0.001419 0.001846 0.000000
-0.001553 0.001980 0.000000
-0.001689 0.002124 0.000000
-0.001830 0.002280 0.000000
0.001990 0.002434 0.000000
0.001839 0.002279 0.000000
0.001691 0.002136 0.000000
0.001548 0.002003 0.000000
0.001407 0.001881 0.000000
0.001269 0.001769 0.000000
0.001135 0.001668 0.000000
0.001002 0.001578 0.000000
0.000872 0.001498 0.000000
0.000744 0.001429 0.000000
0.000618 0.001371 0.000000
0.000492 0.001323 0.000000
0.000368 0.001286 0.000000
0.000245 0.001259 0.000000
0.000122 0.001243 0.000000
-0.000000 0.001238 0.000000
-0.000122 0.001243 0.000000
-0.000245 0.001259 0.000000
-0.000368 0.001286 0.000000
-0.000492 0.001323 0.000000
-0.000618 0.001371 0.000000
-0.000744 0.001429 0.000000
-0.000872 0.001498 0.000000
-0.001002 0.001578 0.000000
-0.001135 0.001668 0.000000
-0.001269 0.001769 0.000000
-0.001407 0.001881 0.000000
-0.001548 0.002003 0.000000
-0.001691 0.002136 0.000000
-0.001839 0.002279 0.000000
-0.001990 0.002434 0.000000
0.002149 0.002598 0.000000
0.001987 0.002445 0.000000
0.001829 0.002303 0.000000
0.001675 0.002171 0.000000
0.001523 0.002050 0.000000
0.001375 0.001939 0.000000
0.001230 0.001839 0.000000
0.001087 0.001750 0.000000
0.000946 0.001671 0.000000
0.000808 0.001602 0.000000
0.000670 0.001544 0.000000
0.000535 0.001497 0.000000
0.000400 0.001460 0.000000
0.000266 0.001433 0.000000
0.000133 0.001418 0.000000
-0.000000 0.001412 0.000000
-0.000133 0.001418 0.000000
-0.000266 0.001433 0.000000
-0.000400 0.001460 0.000000
-0.000535 0.001497 0.000000
-0.000670 0.001544 0.000000
-0.000808 0.001602 0.000000
-0.000946 0.001671 0.000000
-0.001087 0.001750 0.000000
-0.001230 0.001839 0.000000
-0.001375 0.001939 0.000000
-0.001523 0.002050 0.000000
-0.001675 0.002171 0.000000
-0.001829 0.002303 0.000000
-0.001987 0.002445 0.000000
-0.002149 0.002598 0.000000
0.002306 0.002773 0.000000
0.002134 0.002621 0.000000