# vtk DataFile Version 2.0
patchtest_tri3_mix
ASCII
DATASET POLYDATA
POINTS 32 float
0.000000 -0.500000 0.000000
1.000000 -0.500000 0.000000
1.000000 0.500000 0.000000
0.000000 0.500000 0.000000
0.250000 -0.500000 0.000000
0.500000 -0.500000 0.000000
0.750000 -0.500000 0.000000
1.000000 -0.250000 0.000000
1.000000 -0.000000 0.000000
1.000000 0.250000 0.000000
0.750000 0.500000 0.000000
0.500000 0.500000 0.000000
0.250000 0.500000 0.000000
0.000000 0.250000 0.000000
0.000000 0.000000 0.000000
0.000000 -0.250000 0.000000
0.437670 -0.185106 0.000000
0.819896 -0.292871 0.000000
0.800776 0.322615 0.000000
0.200590 -0.123059 0.000000
0.584840 0.312266 0.000000
0.371933 -0.314619 0.000000
0.557154 0.114732 0.000000
0.369259 0.272370 0.000000
0.804281 -0.080711 0.000000
0.167455 -0.326979 0.000000
0.166608 0.323983 0.000000
0.380944 0.010750 0.000000
0.622662 -0.306200 0.000000
0.780813 0.128744 0.000000
0.617555 -0.083658 0.000000
0.200602 0.107253 0.000000
POLYGONS 46 184
3 0 25 15
3 25 0 4
3 15 19 14
3 19 15 25
3 25 21 19
3 4 5 21
3 16 19 21
3 28 16 21
3 27 16 30
3 21 25 4
3 19 16 27
3 26 13 31
3 3 26 12
3 26 3 13
3 13 14 31
3 31 27 23
3 31 14 19
3 12 23 11
3 12 26 23
3 23 27 22
3 23 26 31
3 19 27 31
3 28 21 5
3 24 28 17
3 6 28 5
3 29 30 24
3 24 30 28
3 28 6 17
3 30 22 27
3 17 1 7
3 1 17 6
3 8 24 7
3 7 24 17
3 29 24 8
3 20 11 23
3 10 20 18
3 10 11 20
3 20 22 29
3 20 23 22
3 29 9 18
3 9 29 8
3 18 2 10
3 2 18 9
3 29 18 20
3 22 30 29
3 30 16 28
POINT_DATA 32
SCALARS P float 1
LOOKUP_TABLE default
848.339945
382.625305
317.156062
-1650.006056
2017.821361
959.321266
802.109308
280.617022
203.072884
-437.552927
-1790.808200
-1050.209395
-2022.576734
417.935975
-169.714410
177.209095
-910.078139
-2148.324263
2199.208251
4984.704823
2775.339055
-1947.657457
-4564.554532
1459.922030
1002.508959
-2971.820029
3594.107726
1630.780724
-673.085981
-1853.353350
3640.105227
-5489.730962
