# vtk DataFile Version 2.0
cantilever_Q4P1_mix
ASCII
DATASET POLYDATA
POINTS 231 float
0.000000 0.000000 0.000000
48.000000 44.000000 0.000000
48.000000 60.000000 0.000000
0.000000 44.000000 0.000000
3.668233 3.362546 0.000000
7.161787 6.564972 0.000000
10.488982 9.614901 0.000000
13.657740 12.519595 0.000000
16.675604 15.285970 0.000000
19.549760 17.920613 0.000000
22.287051 20.429797 0.000000
24.893996 22.819496 0.000000
27.376800 25.095400 0.000000
29.741375 27.262927 0.000000
31.993352 29.327239 0.000000
34.138092 31.293251 0.000000
36.180701 33.165642 0.000000
38.126043 34.948873 0.000000
39.978750 36.647187 0.000000
41.743232 38.264629 0.000000
43.423692 39.805051 0.000000
45.024129 41.272119 0.000000
46.548356 42.669326 0.000000
48.000000 45.600000 0.000000
48.000000 47.200000 0.000000
48.000000 48.800000 0.000000
48.000000 50.400000 0.000000
48.000000 52.000000 0.000000
48.000000 53.600000 0.000000
48.000000 55.200000 0.000000
48.000000 56.800000 0.000000
48.000000 58.400000 0.000000
46.548356 59.516119 0.000000
45.024129 59.008043 0.000000
43.423692 58.474564 0.000000
41.743232 57.914411 0.000000
39.978749 57.326250 0.000000
38.126043 56.708681 0.000000
36.180701 56.060234 0.000000
34.138092 55.379364 0.000000
31.993352 54.664451 0.000000
29.741375 53.913792 0.000000
27.376800 53.125600 0.000000
24.893996 52.297999 0.000000
22.287051 51.429017 0.000000
19.549760 50.516587 0.000000
16.675604 49.558535 0.000000
13.657740 48.552580 0.000000
10.488982 47.496327 0.000000
7.161787 46.387262 0.000000
3.668233 45.222744 0.000000
0.000000 39.600000 0.000000
0.000000 35.200000 0.000000
0.000000 30.800000 0.000000
0.000000 26.400000 0.000000
0.000000 22.000000 0.000000
0.000000 17.600000 0.000000
0.000000 13.200000 0.000000
0.000000 8.800000 0.000000
0.000000 4.400000 0.000000
3.578594 7.472867 0.000000
3.554583 11.643772 0.000000
3.548483 15.831239 0.000000
3.547051 20.023025 0.000000
3.546738 24.215847 0.000000
3.546675 28.408899 0.000000
3.546774 32.602037 0.000000
3.549461 36.796068 0.000000
3.570684 40.996436 0.000000
7.048736 10.452325 0.000000
7.009560 14.408071 0.000000
6.998014 18.389395 0.000000
6.994955 22.378580 0.000000
6.994210 26.369907 0.000000
6.994059 30.361773 0.000000
6.994535 34.353932 0.000000
7.000542 38.348004 0.000000
7.036068 42.352196 0.000000
10.372383 13.305473 0.000000
10.328376 17.063360 0.000000
10.313997 20.848713 0.000000
10.309805 24.643509 0.000000
10.308688 28.441154 0.000000
10.308477 32.239600 0.000000
10.309356 36.038545 0.000000
10.317334 39.839959 0.000000
10.357665 43.652502 0.000000
13.543812 16.027677 0.000000
13.499447 19.600317 0.000000
13.484236 23.200009 0.000000
13.479527 26.809442 0.000000
13.478192 30.421999 0.000000
13.477951 34.035509 0.000000
13.479061 37.649638 0.000000
13.487708 41.266403 0.000000
13.528590 44.894282 0.000000
16.566180 18.621821 0.000000
16.523076 22.019242 0.000000
16.507992 25.442673 0.000000
16.503175 28.875633 0.000000
16.501758 32.311740 0.000000
16.501506 35.748851 0.000000
16.502694 39.186628 0.000000
16.511351 42.627026 0.000000
16.551180 46.078188 0.000000
19.445255 21.092932 0.000000
19.403919 24.323902 0.000000
19.389334 27.579710 0.000000
19.384609 30.844672 0.000000
19.383193 34.112695 0.000000
19.382941 37.381716 0.000000
19.384124 40.651406 0.000000
19.392527 43.923635 0.000000
19.430772 47.206176 0.000000
22.187432 23.446526 0.000000
22.147971 26.519116 0.000000
22.134003 29.615377 0.000000
22.129452 32.720380 0.000000
22.128075 35.828320 0.000000
22.127828 38.937228 0.000000
22.128974 42.046786 0.000000
22.137033 45.158779 0.000000
22.173564 48.280614 0.000000
24.799092 25.688094 0.000000
24.761480 28.609891 0.000000
24.748151 31.554236 0.000000
24.743798 34.506915 0.000000
24.742475 37.462399 0.000000
24.742238 40.418809 0.000000
24.743336 43.375845 0.000000
24.751030 46.335205 0.000000
24.785857 49.303946 0.000000
27.286407 27.822935 0.000000
27.250576 30.601135 0.000000
27.237874 33.400812 0.000000
27.233721 36.208426 0.000000
27.232457 39.018715 0.000000
27.232230 41.829888 0.000000
27.233278 44.641659 0.000000
27.240612 47.455645 0.000000
27.273793 50.278567 0.000000
29.655284 29.856121 0.000000
29.621157 32.497568 0.000000
29.609056 35.159468 0.000000
29.605099 37.828929 0.000000
29.603894 40.500937 0.000000
29.603677 43.173788 0.000000
29.604676 45.847210 0.000000
29.611662 48.522742 0.000000
29.643267 51.206785 0.000000
31.911359 31.792490 0.000000
31.878856 34.303697 0.000000
31.867331 36.834383 0.000000
31.863561 39.372270 0.000000
31.862414 41.912583 0.000000
31.862207 44.453699 0.000000
31.863158 46.995358 0.000000
31.869813 49.539028 0.000000
31.899914 52.090804 0.000000
34.060003 33.636652 0.000000
34.029047 36.023821 0.000000
34.018071 38.429541 0.000000
34.014481 40.842120 0.000000
34.013387 43.257009 0.000000
34.013190 45.672664 0.000000
34.014096 48.088835 0.000000
34.020434 50.506921 0.000000
34.049102 52.932728 0.000000
36.106331 35.392997 0.000000
36.076849 37.662034 0.000000
36.066395 39.948740 0.000000
36.062976 42.241978 0.000000
36.061934 44.537416 0.000000
36.061747 46.833583 0.000000
36.062609 49.130242 0.000000
36.068646 51.428725 0.000000
36.095949 53.734561 0.000000
38.055214 37.065706 0.000000
38.027136 39.222238 0.000000
38.017180 41.395597 0.000000
38.013924 43.575176 0.000000
38.012932 45.756851 0.000000
38.012753 47.939220 0.000000
38.013575 50.122058 0.000000
38.019323 52.306633 0.000000
38.045326 54.498211 0.000000
39.911294 38.658763 0.000000
39.884553 40.708146 0.000000
39.875071 42.773555 0.000000
39.871969 44.844888 0.000000
39.871025 46.918218 0.000000
39.870854 48.992208 0.000000
39.871637 51.066645 0.000000
39.877112 53.142736 0.000000
39.901877 55.225497 0.000000
41.678988 40.175959 0.000000
41.653521 42.123296 0.000000
41.644490 44.085896 0.000000
41.641537 46.054138 0.000000
41.640637 48.024281 0.000000
41.640475 49.995053 0.000000
41.641220 51.966251 0.000000
41.646434 53.939025 0.000000
41.670020 55.918150 0.000000
43.362507 41.620908 0.000000
43.338253 43.471059 0.000000
43.329652 45.335745 0.000000
43.326839 47.205805 0.000000
43.325982 49.077675 0.000000
43.325828 50.950145 0.000000
43.326537 52.823020 0.000000
43.331503 54.697395 0.000000
43.353966 56.577819 0.000000
44.966849 42.997864 0.000000
44.944523 44.756048 0.000000
44.936702 46.527694 0.000000
44.934146 48.304227 0.000000
44.933364 50.082402 0.000000
44.933225 51.861123 0.000000
44.933892 53.640221 0.000000
44.938483 55.420702 0.000000
44.959236 57.206767 0.000000
46.503133 44.316138 0.000000
46.487577 45.990401 0.000000
46.482217 47.674115 0.000000
46.480442 49.361155 0.000000
46.479889 51.049323 0.000000
46.479798 52.737880 0.000000
46.480327 54.426721 0.000000
46.483688 56.116560 0.000000
46.498362 57.810301 0.000000
POLYGONS 200 1000
4 0 4 60 59
4 59 60 61 58
4 58 61 62 57
4 57 62 63 56
4 56 63 64 55
4 55 64 65 54
4 54 65 66 53
4 53 66 67 52
4 52 67 68 51
4 51 68 50 3
4 4 5 69 60
4 60 69 70 61
4 61 70 71 62
4 62 71 72 63
4 63 72 73 64
4 64 73 74 65
4 65 74 75 66
4 66 75 76 67
4 67 76 77 68
4 68 77 49 50
4 5 6 78 69
4 69 78 79 70
4 70 79 80 71
4 71 80 81 72
4 72 81 82 73
4 73 82 83 74
4 74 83 84 75
4 75 84 85 76
4 76 85 86 77
4 77 86 48 49
4 6 7 87 78
4 78 87 88 79
4 79 88 89 80
4 80 89 90 81
4 81 90 91 82
4 82 91 92 83
4 83 92 93 84
4 84 93 94 85
4 85 94 95 86
4 86 95 47 48
4 7 8 96 87
4 87 96 97 88
4 88 97 98 89
4 89 98 99 90
4 90 99 100 91
4 91 100 101 92
4 92 101 102 93
4 93 102 103 94
4 94 103 104 95
4 95 104 46 47
4 8 9 105 96
4 96 105 106 97
4 97 106 107 98
4 98 107 108 99
4 99 108 109 100
4 100 109 110 101
4 101 110 111 102
4 102 111 112 103
4 103 112 113 104
4 104 113 45 46
4 9 10 114 105
4 105 114 115 106
4 106 115 116 107
4 107 116 117 108
4 108 117 118 109
4 109 118 119 110
4 110 119 120 111
4 111 120 121 112
4 112 121 122 113
4 113 122 44 45
4 10 11 123 114
4 114 123 124 115
4 115 124 125 116
4 116 125 126 117
4 117 126 127 118
4 118 127 128 119
4 119 128 129 120
4 120 129 130 121
4 121 130 131 122
4 122 131 43 44
4 11 12 132 123
4 123 132 133 124
4 124 133 134 125
4 125 134 135 126
4 126 135 136 127
4 127 136 137 128
4 128 137 138 129
4 129 138 139 130
4 130 139 140 131
4 131 140 42 43
4 12 13 141 132
4 132 141 142 133
4 133 142 143 134
4 134 143 144 135
4 135 144 145 136
4 136 145 146 137
4 137 146 147 138
4 138 147 148 139
4 139 148 149 140
4 140 149 41 42
4 13 14 150 141
4 141 150 151 142
4 142 151 152 143
4 143 152 153 144
4 144 153 154 145
4 145 154 155 146
4 146 155 156 147
4 147 156 157 148
4 148 157 158 149
4 149 158 40 41
4 14 15 159 150
4 150 159 160 151
4 151 160 161 152
4 152 161 162 153
4 153 162 163 154
4 154 163 164 155
4 155 164 165 156
4 156 165 166 157
4 157 166 167 158
4 158 167 39 40
4 15 16 168 159
4 159 168 169 160
4 160 169 170 161
4 161 170 171 162
4 162 171 172 163
4 163 172 173 164
4 164 173 174 165
4 165 174 175 166
4 166 175 176 167
4 167 176 38 39
4 16 17 177 168
4 168 177 178 169
4 169 178 179 170
4 170 179 180 171
4 171 180 181 172
4 172 181 182 173
4 173 182 183 174
4 174 183 184 175
4 175 184 185 176
4 176 185 37 38
4 17 18 186 177
4 177 186 187 178
4 178 187 188 179
4 179 188 189 180
4 180 189 190 181
4 181 190 191 182
4 182 191 192 183
4 183 192 193 184
4 184 193 194 185
4 185 194 36 37
4 18 19 195 186
4 186 195 196 187
4 187 196 197 188
4 188 197 198 189
4 189 198 199 190
4 190 199 200 191
4 191 200 201 192
4 192 201 202 193
4 193 202 203 194
4 194 203 35 36
4 19 20 204 195
4 195 204 205 196
4 196 205 206 197
4 197 206 207 198
4 198 207 208 199
4 199 208 209 200
4 200 209 210 201
4 201 210 211 202
4 202 211 212 203
4 203 212 34 35
4 20 21 213 204
4 204 213 214 205
4 205 214 215 206
4 206 215 216 207
4 207 216 217 208
4 208 217 218 209
4 209 218 219 210
4 210 219 220 211
4 211 220 221 212
4 212 221 33 34
4 21 22 222 213
4 213 222 223 214
4 214 223 224 215
4 215 224 225 216
4 216 225 226 217
4 217 226 227 218
4 218 227 228 219
4 219 228 229 220
4 220 229 230 221
4 221 230 32 33
4 22 1 23 222
4 222 23 24 223
4 223 24 25 224
4 224 25 26 225
4 225 26 27 226
4 226 27 28 227
4 227 28 29 228
4 228 29 30 229
4 229 30 31 230
4 230 31 2 32
POINT_DATA 231
VECTORS U float
-0.027163 0.019852 0.000000
-5.409052 25.247654 0.000000
-19.565546 27.213132 0.000000
-0.027163 0.019852 0.000000
0.053883 0.866197 0.000000
0.021390 1.605199 0.000000
0.192508 2.227651 0.000000
0.377589 2.847226 0.000000
0.688395 3.530845 0.000000
0.961186 4.361176 0.000000
1.206089 5.342199 0.000000
1.340814 6.484330 0.000000
1.365219 7.758720 0.000000
1.259797 9.148523 0.000000
1.031112 10.626966 0.000000
0.684807 12.176187 0.000000
0.229528 13.778055 0.000000
-0.324833 15.418119 0.000000
-0.971111 17.082290 0.000000
-1.700979 18.757662 0.000000
-2.510813 20.429259 0.000000
-3.394792 22.083747 0.000000
-4.362010 23.692575 0.000000
-6.655093 25.318083 0.000000
-7.820770 25.458628 0.000000
-8.984523 25.632157 0.000000
-10.179937 25.838564 0.000000
-11.431282 26.068362 0.000000
-12.759291 26.314495 0.000000
-14.185091 26.569121 0.000000
-15.742073 26.824430 0.000000
-17.473640 27.067755 0.000000
-18.798758 25.137934 0.000000
-18.013392 23.325502 0.000000
-17.231255 21.601497 0.000000
-16.444550 19.924803 0.000000
-15.638810 18.271895 0.000000
-14.804529 16.637258 0.000000
-13.934514 15.023738 0.000000
-13.026532 13.439907 0.000000
-12.080569 11.897797 0.000000
-11.101238 10.409981 0.000000
-10.092170 8.990282 0.000000
-9.062166 7.649899 0.000000
-8.013065 6.402862 0.000000
-6.957957 5.254923 0.000000
-5.886232 4.225492 0.000000
-4.826754 3.300415 0.000000
-3.714398 2.539328 0.000000
-2.668187 1.803423 0.000000
-1.293993 1.463891 0.000000
0.027163 -0.019852 0.000000
-0.027163 0.019852 0.000000
0.027163 -0.019852 0.000000
-0.027163 0.019852 0.000000
0.027163 -0.019852 0.000000
-0.027163 0.019852 0.000000
0.027163 -0.019852 0.000000
-0.027163 0.019852 0.000000
0.027163 -0.019852 0.000000
-0.016098 0.825401 0.000000
0.076269 0.743311 0.000000
0.055812 0.647552 0.000000
0.100496 0.416398 0.000000
0.082697 0.258229 0.000000
0.059646 0.003922 0.000000
0.045673 -0.063017 0.000000
-0.106368 -0.128478 0.000000
-0.159001 0.225761 0.000000
0.145781 1.508123 0.000000
0.197174 1.365706 0.000000
0.292922 1.097403 0.000000
0.297427 0.847863 0.000000
0.264090 0.525214 0.000000
0.184720 0.352859 0.000000
-0.043507 0.244083 0.000000
-0.309225 0.451939 0.000000
-1.159160 1.139720 0.000000
0.322191 2.112374 0.000000
0.491137 1.880693 0.000000
0.543535 1.620975 0.000000
0.528764 1.297058 0.000000
0.411926 1.073163 0.000000
0.140513 0.911280 0.000000
-0.246047 0.975079 0.000000
-1.006093 1.326443 0.000000
-2.171472 1.817742 0.000000
0.636412 2.699693 0.000000
0.760038 2.482668 0.000000
0.789703 2.200322 0.000000
0.674437 1.969382 0.000000
0.395500 1.779457 0.000000
-0.040312 1.745953 0.000000
-0.760489 1.893988 0.000000
-1.774379 2.194017 0.000000
-3.127895 2.684631 0.000000
0.907027 3.391866 0.000000
1.003876 3.178211 0.000000
0.923894 2.972531 0.000000
0.668817 2.784260 0.000000
0.231660 2.698208 0.000000
-0.449487 2.728740 0.000000
-1.376908 2.887607 0.000000
-2.594594 3.196216 0.000000
-4.101830 3.625316 0.000000
1.145129 4.217555 0.000000
1.126652 4.053272 0.000000
0.919803 3.888138 0.000000
0.513675 3.783211 0.000000
-0.117887 3.751710 0.000000
-0.974911 3.818549 0.000000
-2.087150 3.998245 0.000000
-3.451269 4.281035 0.000000
-5.068802 4.694727 0.000000
1.265533 5.213094 0.000000
1.123413 5.077106 0.000000
0.769750 4.972907 0.000000
0.198376 4.913611 0.000000
-0.589142 4.925224 0.000000
-1.608671 5.019853 0.000000
-2.855696 5.199261 0.000000
-4.334009 5.479004 0.000000
-6.048471 5.866222 0.000000
1.270128 6.358476 0.000000
0.981048 6.257245 0.000000
0.476998 6.186945 0.000000
-0.238903 6.166942 0.000000
-1.171804 6.207587 0.000000
-2.315737 6.316379 0.000000
-3.672847 6.503657 0.000000
-5.241723 6.771831 0.000000
-7.028412 7.143444 0.000000
1.142626 7.641775 0.000000
0.708087 7.560155 0.000000
0.064627 7.519276 0.000000
-0.786152 7.524943 0.000000
-1.836581 7.585450 0.000000
-3.085302 7.708839 0.000000
-4.527711 7.897009 0.000000
-6.165132 8.160057 0.000000
-8.010157 8.512050 0.000000
0.891076 9.034971 0.000000
0.318178 8.970058 0.000000
-0.455283 8.948440 0.000000
-1.420441 8.973728 0.000000
-2.572176 9.051500 0.000000
-3.902987 9.184089 0.000000
-5.410948 9.375966 0.000000
-7.099894 9.629999 0.000000
-8.984333 9.963767 0.000000
0.523690 10.518154 0.000000
-0.177858 10.464784 0.000000
-1.065385 10.459046 0.000000
-2.130970 10.501159 0.000000
-3.364090 10.592627 0.000000
-4.759035 10.735310 0.000000
-6.314397 10.927380 0.000000
-8.036907 11.172701 0.000000
-9.946735 11.484781 0.000000
0.049575 12.071012 0.000000
-0.766906 12.028057 0.000000
-1.756071 12.036550 0.000000
-2.904701 12.093858 0.000000
-4.202695 12.199555 0.000000
-5.643360 12.349921 0.000000
-7.228257 12.541697 0.000000
-8.969302 12.774264 0.000000
-10.889166 13.062551 0.000000
-0.520589 13.677413 0.000000
-1.440684 13.644649 0.000000
-2.516235 13.667474 0.000000
-3.732802 13.741077 0.000000
-5.077485 13.860374 0.000000
-6.545525 14.018151 0.000000
-8.143293 14.205731 0.000000
-9.887701 14.422344 0.000000
-11.806372 14.682745 0.000000
-1.179472 15.322599 0.000000
-2.189777 15.301255 0.000000
-3.338325 15.340238 0.000000
-4.605424 15.431619 0.000000
-5.977882 15.565409 0.000000
-7.454677 15.727914 0.000000
-9.048572 15.907868 0.000000
-10.784506 16.103147 0.000000
-12.692549 16.332583 0.000000
-1.918662 16.993478 0.000000
-3.008126 16.985605 0.000000
-4.213844 17.044168 0.000000
-5.512481 17.155896 0.000000
-6.892164 17.303679 0.000000
-8.358349 17.468201 0.000000
-9.934648 17.635018 0.000000
-11.652583 17.805392 0.000000
-13.545128 18.001471 0.000000
-2.733506 18.676805 0.000000
-3.888927 18.686971 0.000000
-5.134048 18.769234 0.000000
-6.441994 18.903926 0.000000
-7.805810 19.064110 0.000000
-9.245793 19.225045 0.000000
-10.794717 19.376612 0.000000
-12.488584 19.521395 0.000000
-14.363451 19.684733 0.000000
-3.618645 20.360762 0.000000
-4.826213 20.393472 0.000000
-6.087421 20.506540 0.000000
-7.375629 20.663763 0.000000
-8.706164 20.828777 0.000000
-10.112177 20.985386 0.000000
-11.628479 21.125882 0.000000
-13.293725 21.251853 0.000000
-15.150231 21.387677 0.000000
-4.574072 22.029662 0.000000
-5.811383 22.099588 0.000000
-7.049717 22.244758 0.000000
-8.297915 22.411729 0.000000
-9.592126 22.580175 0.000000
-10.964516 22.741059 0.000000
-12.447050 22.887253 0.000000
-14.076798 23.012887 0.000000
-15.911347 23.131981 0.000000
-5.598880 23.685577 0.000000
-6.813845 23.799919 0.000000
-8.005001 23.957184 0.000000
-9.218169 24.131660 0.000000
-10.484294 24.316617 0.000000
-11.829721 24.504253 0.000000
-13.280397 24.685287 0.000000
-14.868960 24.849271 0.000000
-16.658236 24.981205 0.000000
CELL_DATA 200
SCALARS P float 1
LOOKUP_TABLE default
4.926611
7.309218
4.644765
9.116559
4.289949
6.202255
0.113086
-3.058023
-8.387339
-21.700872
5.795180
4.965094
7.851794
4.528756
6.061904
1.555531
-0.450716
-4.327871
-11.756818
-9.565944
5.399747
7.143547
5.193199
6.305297
2.909862
1.620566
-1.588180
-6.145464
-6.913207
-10.815089
6.866217
6.213243
6.886943
4.369194
3.432527
0.671529
-2.420425
-4.166903
-7.704673
-9.353414
7.639092
7.810615
6.007669
5.169809
2.770840
0.448208
-1.599014
-4.647823
-6.584849
-9.480994
9.133838
7.868970
6.947503
4.846555
2.915337
0.815458
-1.827447
-3.900488
-6.700836
-9.111349
9.986955
8.835962
6.957794
5.194371
3.129736
0.773995
-1.336137
-3.964883
-6.298016
-9.032726
10.865142
9.119769
7.386098
5.377473
3.205412
1.107112
-1.349757
-3.610717
-6.216471
-8.784213
11.315780
9.530151
7.569004
5.503987
3.436158
1.122413
-1.068373
-3.533305
-5.933648
-8.553489
11.626651
9.695221
7.688528
5.654649
3.450437
1.323117
-1.011895
-3.274814
-5.722192
-8.202295
11.734162
9.762709
7.760431
5.637817
3.563869
1.337170
-0.813541
-3.107797
-5.388168
-7.793906
11.720576
9.747044
7.687383
5.655522
3.512769
1.449966
-0.714320
-2.828340
-5.042982
-7.285713
11.606961
9.600836
7.599988
5.517754
3.518082
1.456094
-0.517560
-2.558741
-4.599564
-6.721776
11.379651
9.399491
7.357236
5.394420
3.401040
1.540808
-0.339599
-2.178772
-4.110408
-6.107028
11.056181
9.038197
7.084199
5.118027
3.336494
1.594954
-0.032497
-1.725076
-3.520780
-5.489417
10.568481
8.593677
6.606418
4.856495
3.208429
1.793537
0.399746
-1.087431
-2.835207
-4.879329
9.926307
7.869294
6.089241
4.448816
3.227921
2.184798
1.108751
-0.217483
-1.954474
-4.287717
8.915630
7.023928
5.237408
4.176480
3.538437
2.941204
2.190919
1.061008
-0.767977
-3.568541
7.633566
5.421272
4.498894
4.387225
4.332077
4.196486
3.788701
2.961101
1.214018
-2.515727
4.645946
3.957274
4.687218
5.294608
5.790806
6.059255
6.083240
5.713535
4.844148
1.130015
