# vtk DataFile Version 2.0
cantilever_Q4P1_mix
ASCII
DATASET POLYDATA
POINTS 1326 float
0.000000 0.000000 0.000000
48.000000 44.000000 0.000000
48.000000 60.000000 0.000000
0.000000 44.000000 0.000000
2.504079 2.295406 0.000000
4.888917 4.481507 0.000000
7.160191 6.563508 0.000000
9.323308 8.546366 0.000000
11.383421 10.434802 0.000000
13.345432 12.233313 0.000000
15.214015 13.946180 0.000000
16.993617 15.577483 0.000000
18.688477 17.131104 0.000000
20.302629 18.610743 0.000000
21.839916 20.019923 0.000000
23.304000 21.362000 0.000000
24.698365 22.640168 0.000000
26.026331 23.857470 0.000000
27.291062 25.016806 0.000000
28.495567 26.120936 0.000000
29.642714 27.172488 0.000000
30.735236 28.173966 0.000000
31.775732 29.127755 0.000000
32.766682 30.036125 0.000000
33.710443 30.901239 0.000000
34.609263 31.725158 0.000000
35.465282 32.509842 0.000000
36.280538 33.257160 0.000000
37.056973 33.968892 0.000000
37.796435 34.646732 0.000000
38.500684 35.292293 0.000000
39.171397 35.907114 0.000000
39.810172 36.492658 0.000000
40.418529 37.050318 0.000000
40.997916 37.581423 0.000000
41.549714 38.087238 0.000000
42.075235 38.568966 0.000000
42.575732 39.027754 0.000000
43.052396 39.464696 0.000000
43.506361 39.880831 0.000000
43.938709 40.277150 0.000000
44.350469 40.654596 0.000000
44.742621 41.014069 0.000000
45.116099 41.356424 0.000000
45.471793 41.682477 0.000000
45.810549 41.993003 0.000000
46.133173 42.288742 0.000000
46.440435 42.570399 0.000000
46.733065 42.838643 0.000000
47.011760 43.094114 0.000000
47.277184 43.337419 0.000000
47.529969 43.569138 0.000000
47.770717 43.789824 0.000000
48.000000 44.640000 0.000000
48.000000 45.280000 0.000000
48.000000 45.920000 0.000000
48.000000 46.560000 0.000000
48.000000 47.200000 0.000000
48.000000 47.840000 0.000000
48.000000 48.480000 0.000000
48.000000 49.120000 0.000000
48.000000 49.760000 0.000000
48.000000 50.400000 0.000000
48.000000 51.040000 0.000000
48.000000 51.680000 0.000000
48.000000 52.320000 0.000000
48.000000 52.960000 0.000000
48.000000 53.600000 0.000000
48.000000 54.240000 0.000000
48.000000 54.880000 0.000000
48.000000 55.520000 0.000000
48.000000 56.160000 0.000000
48.000000 56.800000 0.000000
48.000000 57.440000 0.000000
48.000000 58.080000 0.000000
48.000000 58.720000 0.000000
48.000000 59.360000 0.000000
47.770717 59.923572 0.000000
47.529969 59.843323 0.000000
47.277184 59.759061 0.000000
47.011760 59.670587 0.000000
46.733065 59.577688 0.000000
46.440435 59.480145 0.000000
46.133173 59.377724 0.000000
45.810549 59.270183 0.000000
45.471793 59.157264 0.000000
45.116099 59.038700 0.000000
44.742621 58.914207 0.000000
44.350469 58.783490 0.000000
43.938709 58.646236 0.000000
43.506361 58.502120 0.000000
43.052396 58.350799 0.000000
42.575732 58.191911 0.000000
42.075235 58.025078 0.000000
41.549714 57.849905 0.000000
40.997916 57.665972 0.000000
40.418529 57.472843 0.000000
39.810172 57.270057 0.000000
39.171397 57.057132 0.000000
38.500684 56.833561 0.000000
37.796435 56.598812 0.000000
37.056973 56.352324 0.000000
36.280538 56.093513 0.000000
35.465282 55.821761 0.000000
34.609263 55.536421 0.000000
33.710443 55.236814 0.000000
32.766682 54.922227 0.000000
31.775732 54.591911 0.000000
30.735236 54.245079 0.000000
29.642714 53.880905 0.000000
28.495567 53.498522 0.000000
27.291062 53.097021 0.000000
26.026331 52.675444 0.000000
24.698365 52.232788 0.000000
23.303999 51.768000 0.000000
21.839916 51.279972 0.000000
20.302629 50.767543 0.000000
18.688477 50.229492 0.000000
16.993617 49.664539 0.000000
15.214015 49.071338 0.000000
13.345432 48.448477 0.000000
11.383421 47.794474 0.000000
9.323308 47.107769 0.000000
7.160191 46.386730 0.000000
4.888917 45.629639 0.000000
2.504079 44.834693 0.000000
0.000000 42.240000 0.000000
0.000000 40.480000 0.000000
0.000000 38.720000 0.000000
0.000000 36.960000 0.000000
0.000000 35.200000 0.000000
0.000000 33.440000 0.000000
0.000000 31.680000 0.000000
0.000000 29.920000 0.000000
0.000000 28.160000 0.000000
0.000000 26.400000 0.000000
0.000000 24.640000 0.000000
0.000000 22.880000 0.000000
0.000000 21.120000 0.000000
0.000000 19.360000 0.000000
0.000000 17.600000 0.000000
0.000000 15.840000 0.000000
0.000000 14.080000 0.000000
0.000000 12.320000 0.000000
0.000000 10.560000 0.000000
0.000000 8.800000 0.000000
0.000000 7.040000 0.000000
0.000000 5.280000 0.000000
0.000000 3.520000 0.000000
0.000000 1.760000 0.000000
2.442889 3.942653 0.000000
2.426497 5.631082 0.000000
2.422334 7.330758 0.000000
2.421356 9.033367 0.000000
2.421143 10.736678 0.000000
2.421098 12.440145 0.000000
2.421090 14.143645 0.000000
2.421088 15.847152 0.000000
2.421088 17.550659 0.000000
2.421088 19.254167 0.000000
2.421088 20.957675 0.000000
2.421088 22.661183 0.000000
2.421088 24.364691 0.000000
2.421088 26.068199 0.000000
2.421088 27.771707 0.000000
2.421088 29.475215 0.000000
2.421088 31.178723 0.000000
2.421088 32.882231 0.000000
2.421088 34.585739 0.000000
2.421088 36.289247 0.000000
2.421089 37.992755 0.000000
2.421165 39.696289 0.000000
2.423001 41.400415 0.000000
2.437489 43.108802 0.000000
4.811743 6.059080 0.000000
4.785001 7.683066 0.000000
4.777118 9.324409 0.000000
4.775031 10.971085 0.000000
4.774522 12.619215 0.000000
4.774406 14.267706 0.000000
4.774381 15.916281 0.000000
4.774376 17.564874 0.000000
4.774375 19.213471 0.000000
4.774375 20.862069 0.000000
4.774375 22.510667 0.000000
4.774375 24.159265 0.000000
4.774375 25.807863 0.000000
4.774375 27.456461 0.000000
4.774375 29.105059 0.000000
4.774375 30.753656 0.000000
4.774375 32.402254 0.000000
4.774375 34.050852 0.000000
4.774375 35.699450 0.000000
4.774375 37.348048 0.000000
4.774387 38.996650 0.000000
4.774738 40.645366 0.000000
4.778843 42.295348 0.000000
4.803096 43.952122 0.000000
7.080595 8.086017 0.000000
7.050554 9.654162 0.000000
7.040739 11.240931 0.000000
7.037877 12.834103 0.000000
7.037113 14.429206 0.000000
7.036923 16.024837 0.000000
7.036879 17.620603 0.000000
7.036869 19.216400 0.000000
7.036867 20.812205 0.000000
7.036866 22.408011 0.000000
7.036866 24.003817 0.000000
7.036866 25.599624 0.000000
7.036866 27.195430 0.000000
7.036866 28.791237 0.000000
7.036866 30.387043 0.000000
7.036866 31.982850 0.000000
7.036866 33.578656 0.000000
7.036866 35.174462 0.000000
7.036866 36.770269 0.000000
7.036868 38.366076 0.000000
7.036913 39.961898 0.000000
7.037558 41.557921 0.000000
7.043014 43.155569 0.000000
7.070548 44.760668 0.000000
9.245537 10.020048 0.000000
9.215251 11.537476 0.000000
9.204868 13.073237 0.000000
9.201653 14.615600 0.000000
9.200737 16.160079 0.000000
9.200493 17.705179 0.000000
9.200432 19.250446 0.000000
9.200417 20.795756 0.000000
9.200414 22.341077 0.000000
9.200413 23.886400 0.000000
9.200413 25.431723 0.000000
9.200413 26.977047 0.000000
9.200413 28.522371 0.000000
9.200413 30.067694 0.000000
9.200413 31.613018 0.000000
9.200413 33.158342 0.000000
9.200413 34.703666 0.000000
9.200413 36.248989 0.000000
9.200413 37.794313 0.000000
9.200418 39.339638 0.000000
9.200498 40.884989 0.000000
9.201317 42.430589 0.000000
9.207234 43.977911 0.000000
9.235145 45.532662 0.000000
11.308724 11.863147 0.000000
11.279299 13.333204 0.000000
11.269003 14.820883 0.000000
11.265714 16.315018 0.000000
11.264738 17.811284 0.000000
11.264466 19.308198 0.000000
11.264394 20.805296 0.000000
11.264375 22.302444 0.000000
11.264371 23.799605 0.000000
11.264370 25.296769 0.000000
11.264370 26.793933 0.000000
11.264370 28.291098 0.000000
11.264370 29.788263 0.000000
11.264370 31.285427 0.000000
11.264370 32.782592 0.000000
11.264370 34.279757 0.000000
11.264370 35.776921 0.000000
11.264370 37.274086 0.000000
11.264370 38.771251 0.000000
11.264379 40.268419 0.000000
11.264479 41.765617 0.000000
11.265362 43.263080 0.000000
11.271290 44.762248 0.000000
11.298483 46.268602 0.000000
13.274094 13.618851 0.000000
13.245876 15.044121 0.000000
13.235919 16.486217 0.000000
13.232693 17.934514 0.000000
13.231715 19.384882 0.000000
13.231435 20.835892 0.000000
13.231358 22.287090 0.000000
13.231338 23.738341 0.000000
13.231332 25.189605 0.000000
13.231331 26.640873 0.000000
13.231331 28.092142 0.000000
13.231331 29.543410 0.000000
13.231331 30.994679 0.000000
13.231331 32.445948 0.000000
13.231331 33.897217 0.000000
13.231331 35.348486 0.000000
13.231331 36.799755 0.000000
13.231331 38.251024 0.000000
13.231332 39.702293 0.000000
13.231343 41.153566 0.000000
13.231451 42.604872 0.000000
13.232336 44.056440 0.000000
13.238092 45.509654 0.000000
13.264205 46.969750 0.000000
15.146011 15.291068 0.000000
15.119073 16.673795 0.000000
15.109538 18.072558 0.000000
15.106430 19.477242 0.000000
15.105478 20.883912 0.000000
15.105200 22.291205 0.000000
15.105123 23.698681 0.000000
15.105102 25.106209 0.000000
15.105096 26.513752 0.000000
15.105095 27.921299 0.000000
15.105095 29.328846 0.000000
15.105095 30.736394 0.000000
15.105095 32.143942 0.000000
15.105095 33.551489 0.000000
15.105095 34.959037 0.000000
15.105095 36.366585 0.000000
15.105095 37.774133 0.000000
15.105095 39.181681 0.000000
15.105096 40.589229 0.000000
15.105108 41.996781 0.000000
15.105217 43.404365 0.000000
15.106077 44.812204 0.000000
15.111599 46.221618 0.000000
15.136542 47.637599 0.000000
16.928832 16.883693 0.000000
16.903157 18.225939 0.000000
16.894058 19.583460 0.000000
16.891085 20.946626 0.000000
16.890170 22.311688 0.000000
16.889901 23.677345 0.000000
16.889825 25.043179 0.000000
16.889804 26.409065 0.000000
16.889799 27.774965 0.000000
16.889797 29.140868 0.000000
16.889797 30.506772 0.000000
16.889797 31.872677 0.000000
16.889797 33.238582 0.000000
16.889797 34.604486 0.000000
16.889797 35.970391 0.000000
16.889797 37.336296 0.000000
16.889797 38.702201 0.000000
16.889797 40.068105 0.000000
16.889798 41.434011 0.000000
16.889810 42.799919 0.000000
16.889917 44.165860 0.000000
16.890743 45.532044 0.000000
16.896016 46.899731 0.000000
16.919796 48.273676 0.000000
18.626771 18.400489 0.000000
18.602311 19.704195 0.000000
18.593640 21.022448 0.000000
18.590804 22.346079 0.000000
[...]
POINT_DATA 1326
VECTORS U float
0.001929 -0.002411 0.000000
-5.463129 25.400185 0.000000
-19.822452 27.469628 0.000000
-0.001929 0.002411 0.000000
0.005723 0.612154 0.000000
0.026853 1.141685 0.000000
0.042588 1.611712 0.000000
0.113095 2.026758 0.000000
0.213560 2.413762 0.000000
0.364488 2.800900 0.000000
0.528092 3.207594 0.000000
0.710943 3.649352 0.000000
0.878654 4.131294 0.000000
1.038018 4.656505 0.000000
1.163643 5.221361 0.000000
1.265604 5.822588 0.000000
1.326884 6.453482 0.000000
1.359661 7.108901 0.000000
1.352894 7.782258 0.000000
1.318966 8.468687 0.000000
1.250651 9.162880 0.000000
1.159210 9.860888 0.000000
1.039823 10.558799 0.000000
0.902014 11.253579 0.000000
0.742569 11.942472 0.000000
0.569155 12.623186 0.000000
0.379703 13.293832 0.000000
0.180165 13.952700 0.000000
-0.030685 14.598524 0.000000
-0.248356 15.230060 0.000000
-0.473464 15.846487 0.000000
-0.702695 16.446940 0.000000
-0.936252 17.030923 0.000000
-1.171729 17.597878 0.000000
-1.409074 18.147547 0.000000
-1.646563 18.679624 0.000000
-1.884009 19.194032 0.000000
-2.120188 19.690666 0.000000
-2.354862 20.169586 0.000000
-2.587172 20.630845 0.000000
-2.816885 21.074612 0.000000
-3.043405 21.501062 0.000000
-3.266539 21.910451 0.000000
-3.485886 22.303048 0.000000
-3.701312 22.679181 0.000000
-3.912572 23.039195 0.000000
-4.119610 23.383479 0.000000
-4.322328 23.712452 0.000000
-4.520795 24.026574 0.000000
-4.715111 24.326362 0.000000
-4.905667 24.612382 0.000000
-5.093032 24.885414 0.000000
-5.278876 25.146173 0.000000
-5.996960 25.417703 0.000000
-6.486292 25.449589 0.000000
-6.960360 25.488083 0.000000
-7.426579 25.537399 0.000000
-7.890079 25.594310 0.000000
-8.353909 25.658848 0.000000
-8.820499 25.729732 0.000000
-9.291764 25.806500 0.000000
-9.769354 25.888374 0.000000
-10.254733 25.974851 0.000000
-10.749259 26.065337 0.000000
-11.254228 26.159348 0.000000
-11.770927 26.256377 0.000000
-12.300659 26.355964 0.000000
-12.844822 26.457656 0.000000
-13.404903 26.561015 0.000000
-13.982670 26.665641 0.000000
-14.580078 26.771111 0.000000
-15.199823 26.877110 0.000000
-15.844912 26.983216 0.000000
-16.520634 27.089258 0.000000
-17.232634 27.194765 0.000000
-17.995683 27.299158 0.000000
-18.826766 27.404674 0.000000
-19.678951 27.060336 0.000000
-19.528732 26.674073 0.000000
-19.373917 26.295954 0.000000
-19.215676 25.920081 0.000000
-19.054068 25.542838 0.000000
-18.888794 25.161800 0.000000
-18.719448 24.775194 0.000000
-18.545604 24.381632 0.000000
-18.366847 23.979965 0.000000
-18.182752 23.569195 0.000000
-17.992909 23.148422 0.000000
-17.796868 22.716819 0.000000
-17.594188 22.273607 0.000000
-17.384361 21.818056 0.000000
-17.166884 21.349468 0.000000
-16.941160 20.867198 0.000000
-16.706610 20.370641 0.000000
-16.462534 19.859263 0.000000
-16.208267 19.332593 0.000000
-15.943007 18.790264 0.000000
-15.666019 18.232006 0.000000
-15.376424 17.657689 0.000000
-15.073447 17.067324 0.000000
-14.756189 16.461096 0.000000
-14.423885 15.839385 0.000000
-14.075697 15.202761 0.000000
-13.710924 14.552042 0.000000
-13.328897 13.888233 0.000000
-12.929016 13.212655 0.000000
-12.510911 12.526760 0.000000
-12.074075 11.832419 0.000000
-11.618591 11.131515 0.000000
-11.143957 10.426512 0.000000
-10.650920 9.719662 0.000000
-10.138753 9.014092 0.000000
-9.609201 8.312286 0.000000
-9.060823 7.618170 0.000000
-8.496960 6.934182 0.000000
-7.914448 6.265354 0.000000
-7.319435 5.613456 0.000000
-6.704818 4.985453 0.000000
-6.082328 4.380827 0.000000
-5.435554 3.811049 0.000000
-4.789363 3.268088 0.000000
-4.102648 2.777441 0.000000
-3.438428 2.301602 0.000000
-2.675814 1.923598 0.000000
-2.016525 1.453894 0.000000
-1.002490 1.276231 0.000000
0.001929 -0.002411 0.000000
-0.001929 0.002411 0.000000
0.001929 -0.002411 0.000000
-0.001929 0.002411 0.000000
0.001929 -0.002411 0.000000
-0.001929 0.002411 0.000000
0.001929 -0.002411 0.000000
-0.001929 0.002411 0.000000
0.001929 -0.002411 0.000000
-0.001929 0.002411 0.000000
0.001929 -0.002411 0.000000
-0.001929 0.002411 0.000000
0.001929 -0.002411 0.000000
-0.001929 0.002411 0.000000
0.001929 -0.002411 0.000000
-0.001929 0.002411 0.000000
0.001929 -0.002411 0.000000
-0.001929 0.002411 0.000000
0.001929 -0.002411 0.000000
-0.001929 0.002411 0.000000
0.001929 -0.002411 0.000000
-0.001929 0.002411 0.000000
0.001929 -0.002411 0.000000
-0.001929 0.002411 0.000000
0.007576 0.581646 0.000000
0.000928 0.574000 0.000000
0.011045 0.565263 0.000000
0.010886 0.557254 0.000000
0.022765 0.535197 0.000000
0.024174 0.510719 0.000000
0.034593 0.469384 0.000000
0.035268 0.427858 0.000000
0.042887 0.370432 0.000000
0.041999 0.316941 0.000000
0.046330 0.249895 0.000000
0.043699 0.191481 0.000000
0.044449 0.122288 0.000000
0.040053 0.066674 0.000000
0.036640 0.003329 0.000000
0.030255 -0.040873 0.000000
0.021174 -0.088988 0.000000
0.011845 -0.110536 0.000000
-0.006875 -0.129790 0.000000
-0.022450 -0.109742 0.000000
-0.062976 -0.073434 0.000000
-0.097944 0.032430 0.000000
-0.212169 0.201104 0.000000
-0.343616 0.553369 0.000000
0.016850 1.113179 0.000000
0.033846 1.091122 0.000000
0.045271 1.068266 0.000000
0.072080 1.030529 0.000000
0.088537 0.985282 0.000000
0.113567 0.920632 0.000000
0.126712 0.850977 0.000000
0.144571 0.763335 0.000000
0.150906 0.676242 0.000000
0.159463 0.574950 0.000000
0.157752 0.480915 0.000000
0.156017 0.377524 0.000000
0.145581 0.288714 0.000000
0.132209 0.196202 0.000000
0.111619 0.126548 0.000000
0.083356 0.060302 0.000000
0.048736 0.027418 0.000000
-0.002522 0.008422 0.000000
-0.061415 0.038412 0.000000
-0.156931 0.100755 0.000000
-0.269156 0.238771 0.000000
-0.473209 0.445832 0.000000
-0.733729 0.768002 0.000000
-1.293082 1.215633 0.000000
0.070993 1.577332 0.000000
0.097717 1.543570 0.000000
0.142633 1.496964 0.000000
0.177439 1.440379 0.000000
0.219968 1.364110 0.000000
0.248224 1.280160 0.000000
0.278470 1.178091 0.000000
0.293523 1.074656 0.000000
0.307214 0.957593 0.000000
0.306302 0.846854 0.000000
0.301344 0.728358 0.000000
0.282774 0.624621 0.000000
0.256835 0.520050 0.000000
0.217852 0.439591 0.000000
0.166100 0.366714 0.000000
0.100457 0.328994 0.000000
0.012143 0.309952 0.000000
-0.094259 0.339990 0.000000
-0.243100 0.404308 0.000000
-0.422061 0.534419 0.000000
-0.685815 0.718916 0.000000
-1.007270 0.974361 0.000000
-1.501198 1.290900 0.000000
-2.065766 1.549091 0.000000
0.157794 1.988574 0.000000
0.222499 1.941405 0.000000
0.276831 1.882947 0.000000
0.337622 1.805479 0.000000
0.381487 1.718325 0.000000
0.424372 1.613543 0.000000
0.448219 1.505907 0.000000
0.466952 1.385475 0.000000
0.466580 1.270405 0.000000
0.457999 1.148778 0.000000
0.430769 1.041321 0.000000
0.391715 0.934524 0.000000
0.333924 0.851294 0.000000
0.258694 0.777074 0.000000
0.163019 0.736661 0.000000
0.040266 0.715147 0.000000
-0.107786 0.738448 0.000000
-0.299929 0.792116 0.000000
-0.527537 0.900006 0.000000
-0.828519 1.048723 0.000000
-1.180291 1.247602 0.000000
-1.645127 1.487231 0.000000
-2.157492 1.719811 0.000000
-2.745855 2.023344 0.000000
0.299497 2.371750 0.000000
0.373983 2.318598 0.000000
0.453247 2.248239 0.000000
0.512716 2.166483 0.000000
0.568057 2.067672 0.000000
0.600504 1.964391 0.000000
0.624129 1.848951 0.000000
0.624329 1.737559 0.000000
0.612379 1.620255 0.000000
0.577122 1.515800 0.000000
0.526036 1.412407 0.000000
0.451257 1.330804 0.000000
0.355246 1.257898 0.000000
0.233704 1.215786 0.000000
0.082318 1.190616 0.000000
-0.098838 1.204689 0.000000
-0.323442 1.243956 0.000000
-0.585050 1.327894 0.000000
-0.909863 1.443139 0.000000
-1.279656 1.598386 0.000000
-1.733288 1.785843 0.000000
-2.228515 1.985852 0.000000
-2.797119 2.234688 0.000000
-3.428646 2.475504 0.000000
0.459362 2.755367 0.000000
0.557049 2.696946 0.000000
0.632122 2.626299 0.000000
0.699876 2.539421 0.000000
0.740972 2.446284 0.000000
0.769672 2.341331 0.000000
0.770943 2.238694 0.000000
0.756496 2.130286 0.000000
0.714649 2.032831 0.000000
0.653586 1.936103 0.000000
0.564755 1.858663 0.000000
0.451830 1.788695 0.000000
0.309616 1.745842 0.000000
0.136029 1.717222 0.000000
-0.070017 1.722341 0.000000
-0.317945 1.747838 0.000000
-0.603012 1.810623 0.000000
-0.943477 1.898076 0.000000
-1.325162 2.019491 0.000000
-1.774641 2.167602 0.000000
-2.263444 2.335196 0.000000
-2.818341 2.538848 0.000000
-3.419226 2.744610 0.000000
-4.066121 2.996635 0.000000
0.643318 3.159625 0.000000
0.733727 3.101540 0.000000
0.813931 3.029557 0.000000
0.864000 2.949881 0.000000
0.898307 2.858672 0.000000
0.901548 2.767774 0.000000
0.885904 2.670907 0.000000
0.839352 2.582728 0.000000
0.770808 2.494527 0.000000
0.671235 2.422776 0.000000
0.545490 2.356901 0.000000
0.387728 2.314359 0.000000
0.197862 2.283287 0.000000
-0.026089 2.280986 0.000000
-0.290142 2.294987 0.000000
-0.591064 2.340504 0.000000
-0.941586 2.405805 0.000000
-1.330973 2.500690 0.000000
-1.778265 2.617888 0.000000
-2.263326 2.756451 0.000000
-2.807431 2.923416 0.000000
-3.391014 3.099682 0.000000
-4.021385 3.312120 0.000000
-4.705102 3.537778 0.000000
0.815374 3.599091 0.000000
0.907606 3.541017 0.000000
0.966949 3.475450 0.000000
1.007536 3.399239 0.000000
1.013852 3.321414 0.000000
0.998501 3.237330 0.000000
0.949279 3.159523 0.000000
0.875809 3.080791 0.000000
0.768735 3.015597 0.000000
0.634001 2.954638 0.000000
0.465274 2.913405 0.000000
0.264191 2.881127 0.000000
0.028014 2.873276 0.000000
-0.246571 2.878378 0.000000
-0.557684 2.910350 0.000000
-0.914055 2.958334 0.000000
-1.307750 3.032330 0.000000
-1.752657 3.124982 0.000000
-2.234058 3.238808 0.000000
-2.768602 3.375796 0.000000
-3.339809 3.526076 0.000000
-3.957633 3.705474 0.000000
-4.617856 3.895911 0.000000
-5.318393 4.122038 0.000000
0.981257 4.079816 0.000000
1.049625 4.025193 0.000000
1.096980 3.962967 0.000000
1.107430 3.898027 0.000000
1.093824 3.826830 0.000000
1.043881 3.759592 0.000000
0.967863 3.690580 0.000000
0.856215 3.632300 0.000000
0.715849 3.576755 0.000000
0.540052 3.537627 0.000000
0.331917 3.505293 0.000000
0.088049 3.493628 0.000000
-0.192714 3.492194 0.000000
-0.509684 3.513792 0.000000
-0.868580 3.548403 0.000000
-1.263724 3.605962 0.000000
-1.705223 3.679113 0.000000
-2.182151 3.772371 0.000000
-2.707455 3.884850 0.000000
-3.267821 4.012341 0.000000
-3.873462 4.163838 0.000000
-4.516718 4.326990 0.000000
-5.198578 4.518209 0.000000
-5.927279 4.730190 0.000000
1.113939 4.603904 0.000000
1.167903 4.551345 0.000000
1.183231 4.497248 0.000000
1.172591 4.437914 0.000000
1.123628 4.380674 0.000000
1.047116 4.321067 0.000000
0.933396 4.269618 0.000000
0.790210 4.219652 0.000000
0.610545 4.183136 0.000000
0.398709 4.151635 0.000000
0.150735 4.137559 0.000000
-0.132810 4.131527 0.000000
-0.452271 4.145294 0.000000
-0.811033 4.169662 0.000000
-1.205234 4.214300 0.000000
-1.642084 4.271979 0.000000
-2.113460 4.348350 0.000000
-2.629343 4.440821 0.000000
-3.179147 4.548697 0.000000
-3.772191 4.676585 0.000000
-4.400364 4.816959 0.000000
-5.067123 4.980632 0.000000
-5.772858 5.159116 0.000000
-6.517582 5.367954 0.000000
1.222885 5.168414 0.000000
1.243204 5.119968 0.000000
1.236347 5.069907 0.000000
1.189713 5.021253 0.000000
1.114371 4.970204 0.000000
1.000620 4.925112 0.000000
0.856877 4.880567 0.000000
0.675907 4.846863 0.000000
0.463015 4.816767 0.000000
0.213744 4.801300 0.000000
-0.069943 4.792141 0.000000
-0.389278 4.800027 0.000000
-0.745787 4.816579 0.000000
-1.137085 4.851047 0.000000
-1.568096 4.896452 0.000000
-2.032847 4.959036 0.000000
-2.538915 5.035199 0.000000
-3.077962 5.126442 0.000000
-3.657989 5.234495 0.000000
-4.271492 5.355372 0.000000
-4.923203 5.496043 0.000000
-5.610424 5.649590 0.000000
-6.333225 5.826046 0.000000
-7.099030 6.025302 0.000000
1.290023 5.769358 0.000000
1.287177 5.723168 0.000000
1.243802 5.680340 0.000000
1.170883 5.636337 0.000000
1.058691 5.596733 0.000000
0.916151 5.557151 0.000000
0.735877 5.526171 0.000000
0.523974 5.497746 0.000000
0.275579 5.481543 0.000000
-0.006221 5.470300 0.000000
-0.323402 5.473739 0.000000
-0.675999 5.484307 0.000000
-1.062829 5.510724 0.000000
-1.486976 5.546364 0.000000
-1.944163 5.597695 0.000000
-2.439984 5.660560 0.000000
-2.967943 5.737821 0.000000
-3.534640 5.829313 0.000000
-4.133528 5.933524 0.000000
-4.769629 6.054620 0.000000
-5.439212 6.187876 0.000000
-6.143629 6.340088 0.000000
-6.884508 6.507878 0.000000
-7.663886 6.702459 0.000000
1.327452 6.400433 0.000000
1.287789 6.357884 0.000000
1.218161 6.318181 0.000000
1.108719 6.282636 0.000000
0.968702 6.247238 0.000000
0.790647 6.218631 0.000000
0.581277 6.191876 0.000000
0.335412 6.175280 0.000000
0.057037 6.162631 0.000000
-0.256442 6.162630 0.000000
-0.603857 6.168558 0.000000
-0.985004 6.188519 0.000000
-1.401470 6.216331 0.000000
-1.850333 6.258433 0.000000
-2.335540 6.310422 0.000000
-2.852104 6.375967 0.000000
-3.405281 6.453667 0.000000
-3.989553 6.543706 0.000000
-4.609655 6.648188 0.000000
-5.261665 6.764302 0.000000
-5.947957 6.896704 0.000000
-6.667868 7.041839 0.000000
-7.421897 7.206161 0.000000
-8.216575 7.392937 0.000000
1.323581 7.056121 0.000000
1.257758 7.015364 0.000000
1.151942 6.981295 0.000000
1.015422 6.948792 0.000000
0.840719 6.921930 0.000000
0.635023 6.896608 0.000000
0.392923 6.879708 0.000000
0.119111 6.866037 0.000000
-0.189509 6.863258 0.000000
-0.530794 6.865494 0.000000
-0.905345 6.880173 0.000000
-1.313520 6.901624 0.000000
-1.753494 6.936081 0.000000
-2.227831 6.979112 0.000000
-2.732788 7.034823 0.000000
-3.272383 7.101028 0.000000
-3.842084 7.179046 0.000000
-4.446049 7.269492 0.000000
-5.080556 7.371040 0.000000
-5.748435 7.486673 0.000000
-6.448144 7.613707 0.000000
-7.180561 7.756323 0.000000
-7.947622 7.913769 0.000000
-8.752719 8.095041 0.000000
1.291037 7.729967 0.000000
1.189528 7.692138 0.000000
1.057258 7.660114 0.000000
0.886765 7.633892 0.000000
0.685573 7.609509 0.000000
0.448145 7.592180 0.000000
0.179719 7.577637 0.000000
-0.123193 7.572474 0.000000
-0.457671 7.571658 0.000000
-0.824968 7.581890 0.000000
-1.224432 7.598065 0.000000
-1.655131 7.626088 0.000000
-2.118466 7.661659 0.000000
-2.611721 7.709058 0.000000
-3.137801 7.765640 0.000000
-3.693065 7.833453 0.000000
-4.280968 7.912060 0.000000
-4.898176 8.001234 0.000000
-5.547550 8.102622 0.000000
-6.227217 8.214494 0.000000
-6.938663 8.339745 0.000000
-7.682125 8.476724 0.000000
-8.458704 8.629862 0.000000
-9.274276 8.804012 0.000000
1.222334 8.417031 0.000000
1.095017 8.380520 0.000000
0.929470 8.352731 0.000000
0.733420 8.328328 0.000000
0.501335 8.310206 0.000000
0.238877 8.294747 0.000000
-0.057721 8.287387 0.000000
-0.384928 8.283918 0.000000
-0.744514 8.290272 0.000000
-1.135011 8.301954 0.000000
-1.556207 8.324445 0.000000
-2.008529 8.353702 0.000000
-2.490103 8.393990 0.000000
-3.002851 8.442447 0.000000
-3.543913 8.501557 0.000000
-4.116006 8.570162 0.000000
-4.716252 8.648815 0.000000
-5.347286 8.738126 0.000000
-6.007180 8.837174 0.000000
-6.697762 8.947845 0.000000
-7.418629 9.068726 0.000000
-8.170720 9.202396 0.000000
-8.956047 9.349422 0.000000
-9.778773 9.517558 0.000000
1.129095 9.111912 0.000000
0.969332 9.077748 0.000000
0.779039 9.051269 0.000000
0.552849 9.031542 0.000000
0.296781 9.014891 0.000000
0.006927 9.005348 0.000000
-0.312706 8.999438 0.000000
-0.664287 9.002277 0.000000
-1.045689 9.010007 0.000000
-1.457282 9.027619 0.000000
-1.898679 9.051417 0.000000
-2.368699 9.085521 0.000000
-2.868399 9.127029 0.000000
-3.395590 9.178648 0.000000
-3.952266 9.238754 0.000000
-4.536009 9.308432 0.000000
-5.149080 9.387509 0.000000
-5.789653 9.475694 0.000000
-6.459634 9.574025 0.000000
-7.158339 9.681517 0.000000
-7.887005 9.799893 0.000000
-8.646327 9.928537 0.000000
-9.437882 10.070717 0.000000
-10.267056 10.231987 0.000000
1.006373 9.810812 0.000000
0.822680 9.777678 0.000000
0.602997 9.754451 0.000000
0.353697 9.735890 0.000000
0.070915 9.723962 0.000000
-0.240952 9.715660 0.000000
-0.584347 9.715187 0.000000
-0.956624 9.719318 0.000000
-1.358612 9.732504 0.000000
-1.789251 9.751462 0.000000
-2.247924 9.780073 0.000000
-2.734940 9.815532 0.000000
-3.248675 9.860613 0.000000
-3.790436 9.913430 0.000000
-4.358240 9.975399 0.000000
-4.953894 10.045780 0.000000
-5.575751 10.124749 0.000000
-6.225614 10.212641 0.000000
-6.902692 10.308869 0.000000
-7.608426 10.414513 0.000000
-8.343071 10.528900 0.000000
-9.107760 10.653661 0.000000
-9.904513 10.790024 0.000000
-10.737820 10.944976 0.000000
0.864057 10.509559 0.000000
0.651841 10.478388 0.000000
0.409824 10.456120 0.000000
0.134449 10.441176 0.000000
-0.169506 10.430320 0.000000
-0.504603 10.426595 0.000000
-0.867787 10.427330 0.000000
-1.260232 10.436381 0.000000
-1.680333 10.450927 0.000000
-2.127927 10.474541 0.000000
-2.602679 10.504617 0.000000
-3.103434 10.543887 0.000000
-3.630868 10.590359 0.000000
-4.183379 10.645633 0.000000
-4.762291 10.708581 0.000000
-5.366165 10.779700 0.000000
-5.996575 10.858766 0.000000
-6.652729 10.945507 0.000000
-7.336122 11.040444 0.000000
-8.046818 11.143056 0.000000
-8.786067 11.254345 0.000000
-9.554833 11.374262 0.000000
-10.354985 11.505415 0.000000
-11.191471 11.653623 0.000000
0.698860 11.205420 0.000000
0.465085 11.175170 0.000000
0.197651 11.155520 0.000000
-0.098186 11.141523 0.000000
-0.424883 11.134411 0.000000
-0.779031 11.131813 0.000000
-1.162029 11.136893 0.000000
-1.571841 11.147299 0.000000
-2.008654 11.166248 0.000000
-2.471594 11.191412 0.000000
-2.959887 11.225399 0.000000
-3.473636 11.266238 0.000000
-4.011567 11.315602 0.000000
-4.574511 11.372127 0.000000
-5.161231 11.436508 0.000000
-5.773001 11.508099 0.000000
-6.409077 11.586852 0.000000
-7.070889 11.672802 0.000000
-7.758420 11.765580 0.000000
-8.473035 11.865748 0.000000
-9.215417 11.973072 0.000000
-9.986879 12.088658 0.000000
-10.789402 12.214087 0.000000
-11.627470 12.355845 0.000000
0.518772 11.895271 0.000000
0.260341 11.866753 0.000000
-0.026915 11.847977 0.000000
-0.345017 11.836931 0.000000
-0.690154 11.830870 0.000000
-1.063802 11.832019 0.000000
-1.463572 11.838432 0.000000
-1.889909 11.852915 0.000000
-2.341498 11.873471 0.000000
-2.817861 11.902533 0.000000
-3.318599 11.938245 0.000000
-3.842700 11.982280 0.000000
-4.390520 12.033157 0.000000
-4.960998 12.091683 0.000000
-5.555056 12.156903 0.000000
-6.172020 12.228918 0.000000
-6.813164 12.307350 0.000000
-7.478446 12.391939 0.000000
-8.169270 12.482850 0.000000
-8.886225 12.579853 0.000000
-9.630663 12.683560 0.000000
-10.403722 12.794273 0.000000
-11.207378 12.914258 0.000000
-12.046115 13.049397 0.000000
0.321672 12.577201 0.000000
0.044060 12.549613 0.000000
-0.264955 12.533063 0.000000
-0.600976 12.523002 0.000000
-0.965316 12.520082 0.000000
-1.355259 12.522523 0.000000
-1.771408 12.532626 0.000000
-2.212087 12.548743 0.000000
-2.677045 12.573089 0.000000
-3.165448 12.604004 0.000000
-3.676486 12.643102 0.000000
-4.210069 12.688895 0.000000
-4.765268 12.742232 0.000000
-5.342635 12.801958 0.000000
-5.941552 12.868250 0.000000
-6.563071 12.940400 0.000000
-7.207152 13.018206 0.000000
-7.875156 13.101466 0.000000
-8.567646 13.189954 0.000000
-9.286066 13.283956 0.000000
-10.031407 13.383532 0.000000
-10.805099 13.489562 0.000000
-11.609023 13.603851 0.000000
-12.447391 13.732570 0.000000
0.113784 13.248913 0.000000
-0.184990 13.222920 0.000000
-0.511455 13.207314 0.000000
-0.866373 13.199798 0.000000
-1.246623 13.198109 0.000000
-1.652819 13.203808 0.000000
-2.082988 13.215540 0.000000
-2.537032 13.235256 0.000000
-3.013752 13.261547 0.000000
-3.512486 13.295936 0.000000
-4.032729 13.337011 0.000000
-4.573647 13.385624 0.000000
-5.135407 13.440509 0.000000
-5.717422 13.501875 0.000000
-6.320474 13.568758 0.000000
-6.944518 13.640964 0.000000
-7.590809 13.717964 0.000000
-8.259906 13.799505 0.000000
-8.953306 13.885561 0.000000
-9.672004 13.976111 0.000000
-10.417475 14.071626 0.000000
-11.190951 14.172677 0.000000
-11.994361 14.281410 0.000000
-12.831650 14.403709 0.000000
-0.106157 13.909090 0.000000
-0.421911 13.884100 0.000000
-0.766931 13.870483 0.000000
-1.137439 13.864122 0.000000
-1.533819 13.865228 0.000000
-1.953802 13.872511 0.000000
-2.397365 13.887578 0.000000
-2.863003 13.909287 0.000000