# vtk DataFile Version 2.0
cantilever_Q4P1_mix
ASCII
DATASET POLYDATA
POINTS 496 float
0.000000 0.000000 0.000000
48.000000 44.000000 0.000000
48.000000 60.000000 0.000000
0.000000 44.000000 0.000000
2.973780 2.725965 0.000000
5.805951 5.322122 0.000000
8.503257 7.794652 0.000000
11.072120 10.149443 0.000000
13.518656 12.392102 0.000000
15.848691 14.527966 0.000000
18.067771 16.562123 0.000000
20.181181 18.499416 0.000000
22.193952 20.344456 0.000000
24.110877 22.101637 0.000000
25.936520 23.775143 0.000000
27.675227 25.368959 0.000000
29.331139 26.886878 0.000000
30.908198 28.332515 0.000000
32.410159 29.709313 0.000000
33.840598 31.020548 0.000000
35.202921 32.269344 0.000000
36.500371 33.458674 0.000000
37.736038 34.591368 0.000000
38.912864 35.670125 0.000000
40.033650 36.697513 0.000000
41.101066 37.675977 0.000000
42.117652 38.607848 0.000000
43.085830 39.495344 0.000000
44.007903 40.340578 0.000000
44.886069 41.145563 0.000000
45.722417 41.912215 0.000000
46.518939 42.642361 0.000000
47.277531 43.337737 0.000000
48.000000 45.066667 0.000000
48.000000 46.133333 0.000000
48.000000 47.200000 0.000000
48.000000 48.266667 0.000000
48.000000 49.333333 0.000000
48.000000 50.400000 0.000000
48.000000 51.466667 0.000000
48.000000 52.533333 0.000000
48.000000 53.600000 0.000000
48.000000 54.666667 0.000000
48.000000 55.733333 0.000000
48.000000 56.800000 0.000000
48.000000 57.866667 0.000000
48.000000 58.933333 0.000000
47.277531 59.759177 0.000000
46.518939 59.506313 0.000000
45.722417 59.240806 0.000000
44.886069 58.962023 0.000000
44.007903 58.669301 0.000000
43.085830 58.361943 0.000000
42.117652 58.039217 0.000000
41.101066 57.700355 0.000000
40.033650 57.344550 0.000000
38.912864 56.970955 0.000000
37.736038 56.578679 0.000000
36.500371 56.166790 0.000000
35.202921 55.734307 0.000000
33.840598 55.280199 0.000000
32.410159 54.803386 0.000000
30.908198 54.302733 0.000000
29.331139 53.777046 0.000000
27.675227 53.225076 0.000000
25.936520 52.645507 0.000000
24.110877 52.036959 0.000000
22.193952 51.397984 0.000000
20.181181 50.727060 0.000000
18.067771 50.022590 0.000000
15.848691 49.282897 0.000000
13.518656 48.506219 0.000000
11.072120 47.690707 0.000000
8.503257 46.834419 0.000000
5.805951 45.935317 0.000000
2.973780 44.991260 0.000000
0.000000 41.066667 0.000000
0.000000 38.133333 0.000000
0.000000 35.200000 0.000000
0.000000 32.266667 0.000000
0.000000 29.333333 0.000000
0.000000 26.400000 0.000000
0.000000 23.466667 0.000000
0.000000 20.533333 0.000000
0.000000 17.600000 0.000000
0.000000 14.666667 0.000000
0.000000 11.733333 0.000000
0.000000 8.800000 0.000000
0.000000 5.866667 0.000000
0.000000 2.933333 0.000000
2.901112 5.480535 0.000000
2.881646 8.284104 0.000000
2.876701 11.101062 0.000000
2.875540 13.921510 0.000000
2.875286 16.742795 0.000000
2.875234 19.564266 0.000000
2.875224 22.385776 0.000000
2.875222 25.207293 0.000000
2.875221 28.028812 0.000000
2.875221 30.850331 0.000000
2.875223 33.671850 0.000000
2.875313 36.493400 0.000000
2.877493 39.315660 0.000000
2.894699 42.143013 0.000000
5.714302 7.950388 0.000000
5.682543 10.633917 0.000000
5.673182 13.338115 0.000000
5.670703 16.048663 0.000000
5.670099 18.760941 0.000000
5.669961 21.473650 0.000000
5.669931 24.186459 0.000000
5.669925 26.899290 0.000000
5.669924 29.612125 0.000000
5.669924 32.324961 0.000000
5.669939 35.037803 0.000000
5.670355 37.750780 0.000000
5.675230 40.465273 0.000000
5.704032 43.187890 0.000000
8.408732 10.315688 0.000000
8.373056 12.891087 0.000000
8.361399 15.488668 0.000000
8.358001 18.093877 0.000000
8.357094 20.701386 0.000000
8.356868 23.309525 0.000000
8.356815 25.917822 0.000000
8.356804 28.526158 0.000000
8.356801 31.134503 0.000000
8.356802 33.742849 0.000000
8.356856 36.351214 0.000000
8.357622 38.959821 0.000000
8.364101 41.570372 0.000000
8.396800 44.189845 0.000000
10.979760 12.572513 0.000000
10.943794 15.047705 0.000000
10.931464 17.544739 0.000000
10.927646 20.049638 0.000000
10.926557 22.557059 0.000000
10.926268 25.065219 0.000000
10.926195 27.573578 0.000000
10.926178 30.081989 0.000000
10.926174 32.590412 0.000000
10.926179 35.098840 0.000000
10.926273 37.607298 0.000000
10.927246 40.116056 0.000000
10.934273 42.626876 0.000000
10.967419 45.146597 0.000000
13.429948 14.723203 0.000000
13.395005 17.104009 0.000000
13.382776 19.505813 0.000000
13.378870 21.915310 0.000000
13.377711 24.327345 0.000000
13.377388 26.740152 0.000000
13.377303 29.153179 0.000000
13.377281 31.566265 0.000000
13.377277 33.979367 0.000000
13.377286 36.392475 0.000000
13.377405 38.805621 0.000000
13.378453 41.219084 0.000000
13.385493 43.634590 0.000000
13.417786 46.058709 0.000000
15.763970 16.771905 0.000000
15.730460 19.063189 0.000000
15.718635 21.374523 0.000000
15.714805 23.693247 0.000000
15.713643 26.014438 0.000000
15.713310 28.336395 0.000000
15.713218 30.658576 0.000000
15.713195 32.980819 0.000000
15.713189 35.303079 0.000000
15.713201 37.625347 0.000000
15.713330 39.947655 0.000000
15.714380 42.270278 0.000000
15.721216 44.594875 0.000000
15.752227 46.927720 0.000000
17.987011 18.723182 0.000000
17.955020 20.929333 0.000000
17.943697 23.154592 0.000000
17.940006 25.386908 0.000000
17.938875 27.621591 0.000000
17.938545 29.857014 0.000000
17.938453 32.092657 0.000000
17.938429 34.328363 0.000000
17.938423 36.564085 0.000000
17.938436 38.799817 0.000000
17.938566 41.035589 0.000000
17.939587 43.271665 0.000000
17.946145 45.509631 0.000000
17.975766 47.755466 0.000000
20.104244 20.581584 0.000000
20.073752 22.706696 0.000000
20.062947 24.850010 0.000000
20.059416 27.000050 0.000000
20.058329 29.152350 0.000000
20.058010 31.305359 0.000000
20.057920 33.458580 0.000000
20.057895 35.611862 0.000000
20.057890 37.765161 0.000000
20.057903 39.918469 0.000000
20.058029 42.071816 0.000000
20.059009 44.225455 0.000000
20.065271 46.380896 0.000000
20.093512 48.543838 0.000000
22.120672 22.351503 0.000000
22.091624 24.399449 0.000000
22.081326 26.464731 0.000000
22.077958 28.536420 0.000000
22.076920 30.610263 0.000000
22.076614 32.684783 0.000000
22.076527 34.759505 0.000000
22.076503 36.834286 0.000000
22.076498 38.909084 0.000000
22.076510 40.983890 0.000000
22.076632 43.058734 0.000000
22.077568 45.133856 0.000000
22.083537 47.210697 0.000000
22.110443 49.294682 0.000000
24.041084 24.037145 0.000000
24.013417 26.011603 0.000000
24.003608 28.002572 0.000000
24.000398 29.999643 0.000000
23.999408 31.998766 0.000000
23.999115 33.998535 0.000000
23.999032 35.998497 0.000000
23.999009 37.998514 0.000000
23.999004 39.998548 0.000000
23.999016 41.998590 0.000000
23.999132 43.998668 0.000000
24.000025 45.999011 0.000000
24.005712 48.000991 0.000000
24.031340 50.009776 0.000000
25.870050 25.642519 0.000000
25.843700 27.546990 0.000000
25.834356 29.467186 0.000000
25.831299 31.393194 0.000000
25.830356 33.321156 0.000000
25.830077 35.249733 0.000000
25.829997 37.178494 0.000000
25.829975 39.107308 0.000000
25.829971 41.036137 0.000000
25.829982 42.964975 0.000000
25.830093 44.893847 0.000000
25.830943 46.822972 0.000000
25.836360 48.753655 0.000000
25.860769 50.690820 0.000000
27.611922 27.171447 0.000000
27.586827 29.009264 0.000000
27.577928 30.862057 0.000000
27.575016 32.720386 0.000000
27.574118 34.580576 0.000000
27.573852 36.441351 0.000000
27.573776 38.302302 0.000000
27.573755 40.163304 0.000000
27.573751 42.024320 0.000000
27.573762 43.885343 0.000000
27.573867 45.746400 0.000000
27.574677 47.607698 0.000000
27.579836 49.470479 0.000000
27.603083 51.339434 0.000000
29.270849 28.627569 0.000000
29.246948 30.401907 0.000000
29.238473 32.190507 0.000000
29.235700 33.984379 0.000000
29.234844 35.780024 0.000000
29.234591 37.576227 0.000000
29.234519 39.372596 0.000000
29.234499 41.169014 0.000000
29.234495 42.965446 0.000000
29.234505 44.761885 0.000000
29.234605 46.558356 0.000000
29.235377 48.355056 0.000000
29.240291 50.153169 0.000000
29.262430 51.957161 0.000000
30.850779 30.014352 0.000000
30.828016 31.728233 0.000000
30.819945 33.455697 0.000000
30.817304 35.188183 0.000000
30.816488 36.922356 0.000000
30.816247 38.657061 0.000000
30.816179 40.391925 0.000000
30.816159 42.126834 0.000000
30.816156 43.861757 0.000000
30.816165 45.596687 0.000000
30.816261 47.331647 0.000000
30.816996 49.066825 0.000000
30.821676 50.803350 0.000000
30.842761 52.545473 0.000000
32.355474 31.335097 0.000000
32.333795 32.991401 0.000000
32.326108 34.660640 0.000000
32.323593 36.334662 0.000000
32.322816 38.010291 0.000000
32.322587 39.686426 0.000000
32.322521 41.362713 0.000000
32.322503 43.039044 0.000000
32.322499 44.715387 0.000000
32.322509 46.391737 0.000000
32.322600 48.068115 0.000000
32.323300 49.744701 0.000000
32.327757 51.422569 0.000000
32.347838 53.105770 0.000000
33.788517 32.592950 0.000000
33.767871 34.194417 0.000000
33.760550 35.808205 0.000000
33.758154 37.426547 0.000000
33.757414 39.046420 0.000000
33.757196 40.666775 0.000000
33.757133 42.287274 0.000000
33.757116 43.907815 0.000000
33.757113 45.528368 0.000000
33.757122 47.148927 0.000000
33.757208 48.769513 0.000000
33.757875 50.390297 0.000000
33.762119 52.012303 0.000000
33.781245 53.639386 0.000000
35.153320 33.790905 0.000000
35.133657 35.340148 0.000000
35.126684 36.901124 0.000000
35.124403 38.466437 0.000000
35.123698 40.033209 0.000000
35.123490 41.600440 0.000000
35.123431 43.167808 0.000000
35.123414 44.735216 0.000000
35.123411 46.302635 0.000000
35.123419 47.870060 0.000000
35.123502 49.437511 0.000000
35.124137 51.005151 0.000000
35.128179 52.573953 0.000000
35.146394 54.147592 0.000000
36.453132 34.931815 0.000000
36.434405 36.431320 0.000000
36.427765 37.941999 0.000000
36.425592 39.456809 0.000000
36.424921 40.973009 0.000000
36.424723 42.489645 0.000000
36.424666 44.006412 0.000000
36.424651 45.523217 0.000000
36.424647 47.040032 0.000000
36.424656 48.556854 0.000000
36.424734 50.073700 0.000000
36.425339 51.590725 0.000000
36.429189 53.108859 0.000000
36.446536 54.631598 0.000000
37.691048 36.018396 0.000000
37.673214 37.470531 0.000000
[...]
POINT_DATA 496
VECTORS U float
0.010235 -0.007080 0.000000
-5.438293 25.334738 0.000000
-19.715662 27.363684 0.000000
-0.010235 0.007080 0.000000
-0.005255 0.718562 0.000000
0.045069 1.330490 0.000000
0.070338 1.866999 0.000000
0.209407 2.347062 0.000000
0.369513 2.826820 0.000000
0.599927 3.344516 0.000000
0.813247 3.930190 0.000000
1.029547 4.593128 0.000000
1.190088 5.337088 0.000000
1.310214 6.153004 0.000000
1.359651 7.033318 0.000000
1.352969 7.964310 0.000000
1.278807 8.936805 0.000000
1.149513 9.938967 0.000000
0.963459 10.963188 0.000000
0.729978 12.000751 0.000000
0.451440 13.045765 0.000000
0.134593 14.091958 0.000000
-0.217036 15.134675 0.000000
-0.598519 16.169248 0.000000
-1.006389 17.191866 0.000000
-1.436957 18.198861 0.000000
-1.887291 19.186984 0.000000
-2.354611 20.153166 0.000000
-2.836747 21.094437 0.000000
-3.331669 22.008084 0.000000
-3.838499 22.890926 0.000000
-4.356047 23.741049 0.000000
-4.889257 24.552100 0.000000
-6.295546 25.372185 0.000000
-7.086592 25.445891 0.000000
-7.860472 25.536475 0.000000
-8.634075 25.648159 0.000000
-9.418683 25.775680 0.000000
-10.222034 25.917081 0.000000
-11.050685 26.069401 0.000000
-11.910586 26.230493 0.000000
-12.807910 26.398065 0.000000
-13.749214 26.570053 0.000000
-14.743398 26.744501 0.000000
-15.800881 26.919320 0.000000
-16.944233 27.092585 0.000000
-18.202379 27.261543 0.000000
-19.302615 26.224094 0.000000
-18.876079 25.200426 0.000000
-18.447281 24.216565 0.000000
-18.016894 23.251681 0.000000
-17.581212 22.292049 0.000000
-17.137236 21.329992 0.000000
-16.681761 20.360330 0.000000
-16.211831 19.379907 0.000000
-15.724502 18.387089 0.000000
-15.217138 17.381613 0.000000
-14.687336 16.364477 0.000000
-14.133274 15.337773 0.000000
-13.553507 14.304645 0.000000
-12.947441 13.268989 0.000000
-12.314740 12.235538 0.000000
-11.656193 11.209346 0.000000
-10.972303 10.196238 0.000000
-10.265265 9.201807 0.000000
-9.535697 8.232740 0.000000
-8.787463 7.294467 0.000000
-8.019763 6.394806 0.000000
-7.239383 5.537678 0.000000
-6.440175 4.733726 0.000000
-5.636570 3.981201 0.000000
-4.804743 3.301265 0.000000
-3.985915 2.668023 0.000000
-3.089822 2.152793 0.000000
-2.274871 1.588819 0.000000
-1.111100 1.356434 0.000000
0.010235 -0.007080 0.000000
-0.010235 0.007080 0.000000
0.010235 -0.007080 0.000000
-0.010235 0.007080 0.000000
0.010235 -0.007080 0.000000
-0.010235 0.007080 0.000000
0.010235 -0.007080 0.000000
-0.010235 0.007080 0.000000
0.010235 -0.007080 0.000000
-0.010235 0.007080 0.000000
0.010235 -0.007080 0.000000
-0.010235 0.007080 0.000000
0.010235 -0.007080 0.000000
-0.010235 0.007080 0.000000
0.020192 0.677513 0.000000
0.003919 0.666338 0.000000
0.040379 0.621235 0.000000
0.035129 0.571494 0.000000
0.061082 0.466812 0.000000
0.054879 0.375331 0.000000
0.064765 0.236229 0.000000
0.056220 0.137212 0.000000
0.046790 0.003951 0.000000
0.036240 -0.059444 0.000000
-0.004004 -0.136104 0.000000
-0.021541 -0.095927 0.000000
-0.149299 -0.004924 0.000000
-0.237145 0.364136 0.000000
0.034669 1.287271 0.000000
0.098117 1.223542 0.000000
0.126123 1.141478 0.000000
0.181289 1.001872 0.000000
0.196388 0.858514 0.000000
0.216418 0.667115 0.000000
0.206072 0.506051 0.000000
0.182611 0.320673 0.000000
0.141777 0.204777 0.000000
0.058066 0.100477 0.000000
-0.034395 0.116701 0.000000
-0.246111 0.218643 0.000000
-0.496754 0.528561 0.000000
-1.187351 1.140273 0.000000
0.162710 1.802663 0.000000
0.228716 1.712673 0.000000
0.321062 1.570405 0.000000
0.365398 1.412030 0.000000
0.404206 1.208160 0.000000
0.397256 1.023539 0.000000
0.365190 0.819990 0.000000
0.295564 0.676855 0.000000
0.173126 0.553272 0.000000
0.013413 0.535826 0.000000
-0.260487 0.598916 0.000000
-0.606539 0.813487 0.000000
-1.225085 1.205473 0.000000
-2.071427 1.605545 0.000000
0.317494 2.274369 0.000000
0.450572 2.153884 0.000000
0.529321 2.005977 0.000000
0.592871 1.814821 0.000000
0.596550 1.631459 0.000000
0.563610 1.430710 0.000000
0.475242 1.277919 0.000000
0.325771 1.143393 0.000000
0.118811 1.096155 0.000000
-0.195482 1.114079 0.000000
-0.593718 1.246946 0.000000
-1.185377 1.497570 0.000000
-1.934300 1.802694 0.000000
-2.862613 2.221562 0.000000
0.548438 2.743507 0.000000
0.666664 2.623121 0.000000
0.760360 2.461349 0.000000
0.782054 2.295609 0.000000
0.756730 2.111576 0.000000
0.661357 1.961860 0.000000
0.498212 1.825343 0.000000
0.263508 1.757481 0.000000
-0.072712 1.739213 0.000000
-0.497561 1.810415 0.000000
-1.075041 1.965635 0.000000
-1.779095 2.185437 0.000000
-2.642800 2.496819 0.000000
-3.658303 2.850622 0.000000
0.763485 3.259617 0.000000
0.892700 3.136263 0.000000
0.939612 2.998153 0.000000
0.930076 2.839931 0.000000
0.838743 2.702546 0.000000
0.674115 2.572230 0.000000
0.427890 2.493626 0.000000
0.084334 2.451260 0.000000
-0.350358 2.478940 0.000000
-0.914581 2.568583 0.000000
-1.590534 2.720087 0.000000
-2.407529 2.944890 0.000000
-3.352229 3.215771 0.000000
-4.421996 3.564058 0.000000
0.982498 3.841698 0.000000
1.060961 3.733559 0.000000
1.074389 3.605393 0.000000
0.996602 3.486218 0.000000
0.840646 3.368417 0.000000
0.595667 3.287494 0.000000
0.256034 3.231928 0.000000
-0.176534 3.230731 0.000000
-0.724551 3.275723 0.000000
-1.376287 3.375367 0.000000
-2.154191 3.533486 0.000000
-3.045963 3.737516 0.000000
-4.055898 4.004650 0.000000
-5.186987 4.326145 0.000000
1.143412 4.507063 0.000000
1.185098 4.406598 0.000000
1.128380 4.307293 0.000000
0.989044 4.205555 0.000000
0.755040 4.128322 0.000000
0.427840 4.067904 0.000000
0.006227 4.048895 0.000000
-0.521792 4.064289 0.000000
-1.148836 4.125985 0.000000
-1.890566 4.234147 0.000000
-2.737181 4.385356 0.000000
-3.695516 4.588814 0.000000
-4.762036 4.836993 0.000000
-5.937067 5.149170 0.000000
1.262170 5.250550 0.000000
1.231529 5.166311 0.000000
1.114495 5.080326 0.000000
0.898568 5.009835 0.000000
0.590007 4.950033 0.000000
0.185814 4.921000 0.000000
-0.318785 4.917462 0.000000
-0.919455 4.952121 0.000000
-1.626066 5.023649 0.000000
-2.431174 5.133863 0.000000
-3.341450 5.287539 0.000000
-4.352047 5.480298 0.000000
-5.463703 5.722655 0.000000
-6.682535 6.018982 0.000000
1.307177 6.069804 0.000000
1.215652 5.993464 0.000000
1.022565 5.929035 0.000000
0.736878 5.872300 0.000000
0.354635 5.838100 0.000000
-0.123953 5.822825 0.000000
-0.696606 5.838490 0.000000
-1.368544 5.883488 0.000000
-2.134225 5.962367 0.000000
-2.998762 6.077414 0.000000
-3.957551 6.227249 0.000000
-5.012307 6.417729 0.000000
-6.163473 6.648740 0.000000
-7.415483 6.934745 0.000000
1.293940 6.950618 0.000000
1.126268 6.885890 0.000000
0.865990 6.831100 0.000000
0.508621 6.793815 0.000000
0.057693 6.771151 0.000000
-0.485808 6.773340 0.000000
-1.123516 6.799091 0.000000
-1.851304 6.854109 0.000000
-2.672263 6.939393 0.000000
-3.582288 7.055640 0.000000
-4.583293 7.206196 0.000000
-5.674067 7.390174 0.000000
-6.856361 7.614459 0.000000
-8.138163 7.887553 0.000000
1.210910 7.884529 0.000000
0.977107 7.825307 0.000000
0.646264 7.783791 0.000000
0.223784 7.755507 0.000000
-0.290054 7.747566 0.000000
-0.894217 7.758990 0.000000
-1.585554 7.795598 0.000000
-2.365163 7.857860 0.000000
-3.229369 7.947718 0.000000
-4.179490 8.067007 0.000000
-5.213825 8.215294 0.000000
-6.333717 8.395928 0.000000
-7.541937 8.611064 0.000000
-8.845878 8.872855 0.000000
1.071182 8.857935 0.000000
0.767621 8.806009 0.000000
0.373776 8.770859 0.000000
-0.110409 8.754063 0.000000
-0.681991 8.754100 0.000000
-1.338405 8.775993 0.000000
-2.078996 8.820077 0.000000
-2.900374 8.888926 0.000000
-3.802832 8.983511 0.000000
-4.784351 9.103893 0.000000
-5.846017 9.251693 0.000000
-6.988894 9.426892 0.000000
-8.216467 9.634264 0.000000
-9.538137 9.883367 0.000000
0.873286 9.862548 0.000000
0.508057 9.814527 0.000000
0.053290 9.787520 0.000000
-0.486817 9.777220 0.000000
-1.109908 9.786564 0.000000
-1.813874 9.815693 0.000000
-2.595443 9.867332 0.000000
-3.453734 9.942044 0.000000
-4.386364 10.040241 0.000000
-5.393779 10.162476 0.000000
-6.476284 10.308112 0.000000
-7.636294 10.478720 0.000000
-8.878385 10.676884 0.000000
-10.211806 10.913509 0.000000
0.626969 10.888139 0.000000
0.201643 10.845021 0.000000
-0.307908 10.822938 0.000000
-0.899183 10.820340 0.000000
-1.568853 10.836329 0.000000
-2.313573 10.873202 0.000000
-3.131302 10.931373 0.000000
-4.019196 11.011487 0.000000
-4.976747 11.113439 0.000000
-6.003534 11.236294 0.000000
-7.101423 11.380087 0.000000
-8.273443 11.544662 0.000000
-9.524791 11.733636 0.000000
-10.865722 11.956835 0.000000
0.334769 11.928022 0.000000
-0.144425 11.888321 0.000000
-0.704937 11.872132 0.000000
-1.342344 11.875326 0.000000
-2.052967 11.898671 0.000000
-2.833662 11.942335 0.000000
-3.681026 12.007071 0.000000
-4.593401 12.092466 0.000000
-5.569493 12.197394 0.000000
-6.610365 12.320846 0.000000
-7.718302 12.461463 0.000000
-8.897443 12.619703 0.000000
-10.153930 12.798302 0.000000
-11.497851 13.007798 0.000000
0.003630 12.974933 0.000000
-0.526122 12.939272 0.000000
-1.132590 12.927828 0.000000
-1.811400 12.937561 0.000000
-2.558293 12.967572 0.000000
-3.369183 13.018414 0.000000
-4.241166 13.089597 0.000000
-5.171890 13.179938 0.000000
-6.161265 13.287692 0.000000
-7.210716 13.410627 0.000000
-8.323908 13.547521 0.000000
-9.505974 13.698072 0.000000
-10.763653 13.865703 0.000000
-12.107284 14.060808 0.000000
-0.362806 14.023611 0.000000
-0.938297 13.991556 0.000000
-1.586665 13.985523 0.000000
-2.302380 14.001427 0.000000
-3.080455 14.038711 0.000000
-3.916679 14.096773 0.000000
-4.807470 14.174483 0.000000
-5.751266 14.269692 0.000000
-6.748290 14.379467 0.000000
-7.801433 14.501244 0.000000
-8.915471 14.633042 0.000000
-10.096696 14.775031 0.000000
-11.352580 14.930635 0.000000
-12.693035 15.111045 0.000000
-0.759516 15.068773 0.000000
-1.377193 15.040811 0.000000
-2.063244 15.040106 0.000000
-2.811420 15.062880 0.000000
-3.616069 15.107702 0.000000
-4.472209 15.173426 0.000000
-5.376540 15.257804 0.000000
-6.327689 15.357447 0.000000
-7.327277 15.468666 0.000000
-8.379422 15.588025 0.000000
-9.490468 15.713712 0.000000
-10.667824 15.845891 0.000000
-11.919448 15.988795 0.000000
-13.254934 16.154186 0.000000
-1.182955 16.106198 0.000000
-1.838975 16.082462 0.000000
-2.558872 16.087755 0.000000
-3.335271 16.117860 0.000000
-4.161554 16.170944 0.000000
-5.032448 16.244781 0.000000
-5.944580 16.335804 0.000000
-6.897753 16.439498 0.000000
-7.894896 16.551091 0.000000
-8.942005 16.666999 0.000000
-10.046846 16.785328 0.000000
-11.217923 16.906885 0.000000
-12.463676 17.036459 0.000000
-13.793081 17.186863 0.000000
-1.629381 17.131852 0.000000
-2.320481 17.112872 0.000000
-3.070468 17.124726 0.000000
-3.870735 17.163054 0.000000
-4.713754 17.225183 0.000000
-5.593739 17.307540 0.000000
-6.508091 17.405130 0.000000
-7.457920 17.512033 0.000000
-8.448306 17.622996 0.000000
-9.486962 17.734285 0.000000
-10.583145 17.844506 0.000000
-11.746243 17.954887 0.000000
-12.985074 18.071002 0.000000
-14.308222 18.206673 0.000000
-2.095796 18.142250 0.000000
-2.818788 18.128565 0.000000
-3.595210 18.147891 0.000000
-4.414915 18.195500 0.000000
-5.269247 18.267507 0.000000
-6.152535 18.358723 0.000000
-7.063311 18.462298 0.000000
-8.005111 18.571417 0.000000
-8.985122 18.680599 0.000000
-10.012907 18.786611 0.000000
-11.098712 18.888499 0.000000
-12.252657 18.987908 0.000000
-13.484087 19.090900 0.000000
-14.801420 19.212455 0.000000
-2.579394 19.134145 0.000000
-3.331406 19.126507 0.000000
-4.130527 19.154488 0.000000
-4.964757 19.212578 0.000000
-5.824538 19.295339 0.000000
-6.704819 19.395167 0.000000
-7.606783 19.503723 0.000000
-8.536653 19.613750 0.000000
-9.504016 19.720419 0.000000
-10.519446 19.821259 0.000000
-11.593811 19.915609 0.000000
-12.737821 20.005122 0.000000
-13.961579 20.096025 0.000000
-15.274170 20.204380 0.000000
-3.077911 20.104532 0.000000
-3.856101 20.104009 0.000000
-4.673895 20.142045 0.000000
-5.516996 20.212122 0.000000
-6.375374 20.305882 0.000000
-7.246577 20.413373 0.000000
-8.135283 20.525220 0.000000
-9.051135 20.635025 0.000000
-10.004869 20.739404 0.000000
-11.007399 20.836390 0.000000
-12.069729 20.925265 0.000000
-13.203072 21.007104 0.000000
-14.418924 21.087741 0.000000
-15.728092 21.184126 0.000000
-3.589346 21.050691 0.000000
-4.390998 21.058545 0.000000
-5.222555 21.108734 0.000000
-6.067325 21.191769 0.000000
-6.917022 21.295898 0.000000
-7.773625 21.408766 0.000000
-8.647092 21.521937 0.000000
-9.548639 21.631571 0.000000
-10.489041 21.735225 0.000000
-11.478831 21.831196 0.000000
-12.528718 21.918107 0.000000
-13.650545 21.995858 0.000000
-14.857809 22.069062 0.000000
-16.164947 22.155073 0.000000
-4.112457 21.969833 0.000000
-4.934159 21.988401 0.000000
-5.772621 22.052608 0.000000
-6.610223 22.148911 0.000000
-7.443706 22.260402 0.000000
-8.283620 22.375247 0.000000
-9.142427 22.489364 0.000000
-10.030975 22.600405 0.000000
-10.959289 22.706586 0.000000
-11.936873 22.805848 0.000000
-12.974061 22.895826 0.000000
-14.083182 22.974715 0.000000
-15.280428 23.044847 0.000000
-16.586309 23.122608 0.000000
-4.646166 22.860012 0.000000
-5.483056 22.891710 0.000000
-6.318027 22.972321 0.000000
-7.137357 23.078250 0.000000
-7.952012 23.191386 0.000000
-8.776982 23.307229 0.000000
-9.623541 23.423888 0.000000
-10.501505 23.539829 0.000000
-11.419301 23.653157 0.000000
-12.385582 23.761182 0.000000
-13.410027 23.860702 0.000000
-14.505095 23.948018 0.000000
-15.689787 24.021847 0.000000
-16.993669 24.095121 0.000000
-5.191135 23.718919 0.000000
-6.032627 23.770268 0.000000
-6.847111 23.863708 0.000000
-7.644247 23.969932 0.000000
-8.443638 24.083081 0.000000
-9.257306 24.201967 0.000000
-10.095163 24.325048 0.000000
-10.964937 24.450718 0.000000
-11.874081 24.576512 0.000000
-12.830209 24.699586 0.000000
-13.842434 24.816032 0.000000
-14.922997 24.921438 0.000000
-16.091424 25.010394 0.000000
-17.388942 25.086101 0.000000
-5.746730 24.554696 0.000000
-6.568316 24.625080 0.000000
-7.355861 24.717380 0.000000
-8.137613 24.821988 0.000000
-8.926877 24.938905 0.000000
-9.733815 25.065648 0.000000
-10.565877 25.200552 0.000000
-11.429798 25.341160 0.000000
-12.332043 25.485111 0.000000
-13.279733 25.629499 0.000000
-14.281225 25.771102 0.000000
-15.348560 25.905328 0.000000
-16.500409 26.027660 0.000000
-17.778461 26.124786 0.000000
CELL_DATA 450
SCALARS P float 1
LOOKUP_TABLE default
6.114818
4.537105
7.394283
4.892479
8.738749
5.228341
8.405728
4.082512
5.600937
0.934352
-0.039377
-4.331499
-9.173775
-11.607724
-25.239191
4.906442
6.580451
4.944899
7.852973
4.979151
7.644053
3.953168
5.418707
1.426516
0.960877
-2.631890
-5.869192
-7.743270
-15.145283
-9.585333
5.647358
5.153560
7.268113
5.119422
7.302007
4.188201
5.547887
2.079598
1.970970
-1.181795
-3.317812
-5.165575
-9.741756
-8.064030
-11.924607
5.578403
6.924495
5.581951
7.278186
4.737031
5.925635
2.906389
3.002139
0.161767
-1.260637
-3.176211
-6.276677
-6.289252
-9.746602
-9.812851
6.849114
6.354036
7.523489
5.558792
6.506129
3.899183
4.067677
1.481078
0.502076
-1.462201
-3.702051
-4.527217
-7.411296
-7.912251
-10.245328
7.464394
8.026256
6.628878
7.262279
5.046644
5.178372
2.821156
2.096735
0.124930
-1.581031
-2.825435
-5.208417
-6.081830
-8.413358
-9.692348
8.794590
7.932894
8.178868
6.336605
6.341119
4.203904
3.598248
1.657620
0.286760
-1.179015
-3.174021
-4.313395
-6.491274
-7.776922
-9.756488
9.463882
9.245997
7.754547
7.557946
5.636252
5.049119
3.170504
2.001505
0.424882
-1.285045
-2.599652
-4.585695
-5.923521
-7.895883
-9.527736
10.452450
9.282092
8.825676
7.114699
6.471619
4.677863
3.616172
1.995866
0.486723
-0.935616
-2.741147
-4.132522
-6.027606
-7.592632
-9.470991
10.899528
10.136758
8.628206
7.875169
6.182137
5.159144
3.538502
2.163232
0.681742
-0.972352
-2.403787
-4.195215
-5.723142
-7.553742
-9.286738
11.478910
10.160577
9.261087
7.678538
6.645019
5.052988
3.759498
2.253627
0.717959
-0.737141
-2.423577
-3.926692
-5.683739
-7.327781
-9.137155
11.694233
10.626148
9.157991
8.080425
6.536377
5.285151
3.779737
2.331387
0.867608
-0.724608
-2.207052
-3.881520
-5.455753
-7.188780
-8.908954
11.964031
10.609263
9.467536
7.983795
6.746166
5.258736
3.870880
2.410618
0.897004
-0.565387
-2.159485
-3.676468
-5.328102
-6.949701
-8.667591
12.021498
10.806457
9.389517
8.146291
6.688772
5.339706
3.892117
2.440474
0.998626
-0.523351
-1.992046
-3.563742
-5.101509
-6.728828
-8.368586
12.096098
10.747778
9.488120
8.067952
6.741223
5.312582
3.907253
2.486211
1.025250
-0.402059
-1.899924
-3.365537
-4.905662
-6.445821
-8.043797
12.053821
10.773804
9.394695
8.078911
6.672939
5.300224
3.899344
2.487193
1.095167
-0.337616
-1.740798
-3.198827
-4.650032
-6.156172
-7.678970
12.005042
10.667844
9.356392
7.974687
6.623320
5.240804
3.865136
2.502077
1.123917
-0.225530
-1.607946
-2.978058
-4.394828
-5.826025
-7.295089
11.886791
10.577281
9.219889
7.881292
6.514281
5.163236
3.821990
2.486587
1.181901
-0.132728
-1.428108
-2.756622
-4.097336
-5.484032
-6.893253
11.744638
10.410873
9.079404
7.724391
6.387042
5.059411
3.753635
2.483243
1.226502
-0.000710
-1.242160
-2.489956
-3.784813
-5.116788
-6.491121
11.549737
10.222885
8.876484
7.543375
6.220354
4.930038
3.681173
2.469487
1.301584
0.144119
-1.007758
-2.198559
-3.434349
-4.739321
-6.096228
11.315985
9.976040
8.639967
7.312507
6.022926
4.780240
3.597201
2.475615
1.395168
0.339757
-0.736022
-1.854032
-3.054941
-4.344276
-5.722067
11.027600
9.684629
8.345029
7.041840
5.787781
4.613086
3.519249
2.503319
1.539907
0.585692
-0.396040
-1.458289
-2.627983
-3.935648
-5.373492
10.683757
9.327640
7.998533
6.714675
5.524306
4.432861
3.462022
2.579309
1.747090
0.913508
0.016746
-0.985336
-2.149017
-3.500352
-5.054127
10.268822
8.905860
7.575673
6.343033
5.220906
4.267069
3.445080
2.729193
2.048672
1.332929
0.532067
-0.425838
-1.591233
-3.026897
-4.756009
9.775349
8.388681
7.087562
5.894060
4.917896
4.124341
3.513816
2.987314
2.458276
1.875131
1.158848
0.253996
-0.933388
-2.480679
-4.464249
9.172331
7.782284
6.472504
5.420283
4.602288
4.080726
3.710916
3.369664
3.008993
2.543665
1.930245
1.073995
-0.122735
-1.818203
-4.140800
8.454825
6.990428
5.792610
4.859284
4.401373
4.201265
4.050956
3.915181
3.695192
3.366912
2.853977
2.084044
0.893961
-0.938684
-3.728576
7.501891
6.078523
4.866801
4.427255
4.435146
4.489308
4.586751
4.604542
4.541936
4.340305
3.959561
3.313533
2.233429
0.294905
-3.060069
6.372340
4.577441
4.066012
4.376053
4.673508
5.024794
5.280948
5.466109
5.536654
5.480618
5.266191
4.803940
3.994325
2.290612
-1.866734
3.902054
3.130153
3.959438
4.596920
5.239743
5.750356
6.173086
6.487474
6.700798
6.808428
6.787185
6.645855
6.210476
5.520260
1.678421
