# vtk DataFile Version 2.0
cantilever_Q4P1_mix
ASCII
DATASET POLYDATA
POINTS 66 float
0.000000 0.000000 0.000000
48.000000 44.000000 0.000000
48.000000 60.000000 0.000000
0.000000 44.000000 0.000000
5.920209 5.426858 0.000000
11.558504 10.595295 0.000000
16.928308 15.517615 0.000000
22.042407 20.205540 0.000000
26.912978 24.670230 0.000000
31.551617 28.922315 0.000000
35.969368 32.971920 0.000000
40.176750 36.828687 0.000000
44.183780 40.501799 0.000000
48.000000 47.200000 0.000000
48.000000 50.400000 0.000000
48.000000 53.600000 0.000000
48.000000 56.800000 0.000000
44.183780 58.727927 0.000000
40.176750 57.392250 0.000000
35.969368 55.989789 0.000000
31.551617 54.517206 0.000000
26.912978 52.970993 0.000000
22.042407 51.347469 0.000000
16.928308 49.642769 0.000000
11.558504 47.852835 0.000000
5.920209 45.973403 0.000000
0.000000 35.200000 0.000000
0.000000 26.400000 0.000000
0.000000 17.600000 0.000000
0.000000 8.800000 0.000000
5.775544 13.424437 0.000000
5.736970 21.520543 0.000000
5.731466 29.645074 0.000000
5.763399 37.787112 0.000000
11.376078 17.907821 0.000000
11.313680 25.332095 0.000000
11.304749 32.801184 0.000000
11.357121 40.299829 0.000000
16.740237 22.200243 0.000000
16.670738 28.993257 0.000000
16.660426 35.835117 0.000000
16.718694 42.710822 0.000000
21.858735 26.295201 0.000000
21.789072 32.490948 0.000000
21.778505 38.735154 0.000000
21.836801 45.013687 0.000000
26.736632 30.197316 0.000000
26.669155 35.825676 0.000000
26.658814 41.500774 0.000000
26.715220 47.209273 0.000000
31.383234 33.914277 0.000000
31.318616 39.002752 0.000000
31.308671 44.135915 0.000000
31.362662 49.301115 0.000000
35.808874 37.454442 0.000000
35.747223 42.028896 0.000000
35.737721 46.645961 0.000000
35.789222 51.293608 0.000000
40.026461 40.827977 0.000000
39.969720 44.914175 0.000000
39.961265 49.039816 0.000000
40.008983 53.193498 0.000000
44.065131 44.056992 0.000000
44.025766 47.685481 0.000000
44.020537 51.341705 0.000000
44.054359 55.017253 0.000000
POLYGONS 50 250
4 0 4 30 29
4 29 30 31 28
4 28 31 32 27
4 27 32 33 26
4 26 33 25 3
4 4 5 34 30
4 30 34 35 31
4 31 35 36 32
4 32 36 37 33
4 33 37 24 25
4 5 6 38 34
4 34 38 39 35
4 35 39 40 36
4 36 40 41 37
4 37 41 23 24
4 6 7 42 38
4 38 42 43 39
4 39 43 44 40
4 40 44 45 41
4 41 45 22 23
4 7 8 46 42
4 42 46 47 43
4 43 47 48 44
4 44 48 49 45
4 45 49 21 22
4 8 9 50 46
4 46 50 51 47
4 47 51 52 48
4 48 52 53 49
4 49 53 20 21
4 9 10 54 50
4 50 54 55 51
4 51 55 56 52
4 52 56 57 53
4 53 57 19 20
4 10 11 58 54
4 54 58 59 55
4 55 59 60 56
4 56 60 61 57
4 57 61 18 19
4 11 12 62 58
4 58 62 63 59
4 59 63 64 60
4 60 64 65 61
4 61 65 17 18
4 12 1 13 62
4 62 13 14 63
4 63 14 15 64
4 64 15 16 65
4 65 16 2 17
POINT_DATA 66
VECTORS U float
0.150650 -0.081721 0.000000
-5.389855 25.061454 0.000000
-19.163976 26.802572 0.000000
-0.150650 0.081721 0.000000
-0.119536 1.399070 0.000000
0.331022 2.382297 0.000000
0.704347 3.605056 0.000000
1.196847 5.184527 0.000000
1.394008 7.447502 0.000000
1.092607 10.265142 0.000000
0.277690 13.529020 0.000000
-1.060955 17.169233 0.000000
-2.948308 21.064136 0.000000
-7.749788 25.268084 0.000000
-10.100317 25.652330 0.000000
-12.659555 26.096319 0.000000
-15.572752 26.538594 0.000000
-17.400827 22.189411 0.000000
-15.578166 18.311848 0.000000
-13.715201 14.755910 0.000000
-11.791330 11.526423 0.000000
-9.818557 8.676142 0.000000
-7.855698 6.240001 0.000000
-5.903291 4.274653 0.000000
-4.054724 2.677541 0.000000
-1.983212 1.793572 0.000000
0.150650 -0.081721 0.000000
-0.150650 0.081721 0.000000
0.150650 -0.081721 0.000000
-0.150650 0.081721 0.000000
0.250029 1.098202 0.000000
0.181934 0.786079 0.000000
0.069036 0.016480 0.000000
0.047995 0.134387 0.000000
0.558466 2.100368 0.000000
0.566600 1.401421 0.000000
0.258647 1.087658 0.000000
-1.154055 1.623816 0.000000
1.021953 3.191191 0.000000
0.749975 2.790940 0.000000
-0.396970 2.784864 0.000000
-2.589603 3.227603 0.000000
1.183683 4.909217 0.000000
0.299124 4.740524 0.000000
-1.461341 4.831093 0.000000
-4.164152 5.313442 0.000000
0.803392 7.229471 0.000000
-0.610955 7.164632 0.000000
-2.849688 7.345462 0.000000
-5.897626 7.812647 0.000000
-0.043920 10.067166 0.000000
-1.924635 10.072658 0.000000
-4.495238 10.291087 0.000000
-7.749378 10.761869 0.000000
-1.344749 13.356153 0.000000
-3.576644 13.405666 0.000000
-6.350164 13.673278 0.000000
-9.673599 14.111821 0.000000
-3.078267 17.016452 0.000000
-5.533767 17.152073 0.000000
-8.327100 17.447270 0.000000
-11.604391 17.803181 0.000000
-5.244211 21.030886 0.000000
-7.696820 21.270596 0.000000
-10.376300 21.569975 0.000000
-13.506577 21.844118 0.000000
CELL_DATA 50
SCALARS P float 1
LOOKUP_TABLE default
6.860623
4.261931
7.451445
-1.866846
-15.048723
5.542764
6.935027
2.388035
-4.808090
-7.954683
7.592849
5.563798
1.128147
-2.717351
-8.414554
8.954589
5.683266
2.034197
-2.930860
-7.609957
10.157185
6.434830
2.035768
-2.310900
-7.379812
10.654802
6.553061
2.404979
-2.110031
-6.739113
10.585804
6.547450
2.429779
-1.727706
-5.897467
10.052438
6.217574
2.279592
-1.190837
-4.681268
9.045574
5.002808
2.531510
0.241230
-3.239752
5.627919
4.711949
4.666282
3.921173
0.574707
