# vtk DataFile Version 2.0
patchtest_tri3_mix
ASCII
DATASET POLYDATA
POINTS 43 float
0.000000 -0.500000 0.000000
1.000000 -0.500000 0.000000
1.000000 0.500000 0.000000
0.000000 0.500000 0.000000
0.200000 -0.500000 0.000000
0.400000 -0.500000 0.000000
0.600000 -0.500000 0.000000
0.800000 -0.500000 0.000000
1.000000 -0.300000 0.000000
1.000000 -0.100000 0.000000
1.000000 0.100000 0.000000
1.000000 0.300000 0.000000
0.800000 0.500000 0.000000
0.600000 0.500000 0.000000
0.400000 0.500000 0.000000
0.200000 0.500000 0.000000
0.000000 0.300000 0.000000
0.000000 0.100000 0.000000
0.000000 -0.100000 0.000000
0.000000 -0.300000 0.000000
0.189588 0.032058 0.000000
0.870883 -0.150665 0.000000
0.851155 -0.349800 0.000000
0.643530 -0.066456 0.000000
0.352073 0.135252 0.000000
0.539440 0.173232 0.000000
0.518885 -0.185417 0.000000
0.863508 0.335951 0.000000
0.322270 0.324778 0.000000
0.191185 -0.341739 0.000000
0.370218 -0.315719 0.000000
0.450993 -0.010158 0.000000
0.561848 -0.344353 0.000000
0.165172 0.245824 0.000000
0.703508 -0.312306 0.000000
0.832028 0.027141 0.000000
0.642356 0.083415 0.000000
0.798452 0.178844 0.000000
0.684183 0.319075 0.000000
0.502360 0.327142 0.000000
0.324731 -0.124997 0.000000
0.164494 -0.172114 0.000000
0.738228 -0.164644 0.000000
POLYGONS 64 256
3 0 29 19
3 29 0 4
3 19 41 18
3 41 19 29
3 20 18 41
3 29 30 41
3 4 5 30
3 40 30 26
3 40 41 30
3 32 26 30
3 40 26 31
3 30 5 32
3 30 29 4
3 20 41 40
3 17 20 33
3 20 17 18
3 3 16 15
3 33 16 17
3 15 16 33
3 20 24 33
3 39 28 24
3 28 15 33
3 24 20 40
3 25 39 24
3 28 14 15
3 14 28 39
3 14 39 13
3 25 24 31
3 28 33 24
3 40 31 24
3 31 26 23
3 32 6 34
3 6 32 5
3 42 23 26
3 26 34 42
3 42 34 22
3 35 23 42
3 6 7 34
3 36 31 23
3 7 1 22
3 22 1 8
3 22 21 42
3 21 8 9
3 8 21 22
3 35 42 21
3 22 34 7
3 35 21 9
3 25 36 38
3 25 31 36
3 12 13 38
3 13 39 38
3 37 38 36
3 27 38 37
3 36 35 37
3 38 39 25
3 10 11 37
3 10 35 9
3 37 11 27
3 12 27 2
3 12 38 27
3 2 27 11
3 37 35 10
3 36 23 35
3 32 34 26
POINT_DATA 43
SCALARS P float 1
LOOKUP_TABLE default
3507.164702
-55.229776
133.406111
-3345.220827
5406.174973
2617.198210
2377.734398
988.193753
230.913559
71.723063
126.989514
-468.758620
-1477.805910
-1695.971950
-3479.743559
-1437.405048
4683.260790
-5377.218444
5180.174320
-5087.389751
-3350.474850
-434.729841
-952.188174
487.748894
-3810.045068
-3972.408675
2192.254579
2054.071288
4144.286748
-8696.980353
-3699.940756
1227.665704
-3818.953888
1204.071825
-1639.938232
624.320638
-339.948075
-2415.418890
2395.924807
4647.030013
3558.404256
5942.102299
2028.682002
