# vtk DataFile Version 2.0
cantilever_tri3_mix
ASCII
DATASET POLYDATA
POINTS 861 float
0.000000 0.000000 0.000000
48.000000 44.000000 0.000000
48.000000 60.000000 0.000000
0.000000 44.000000 0.000000
1.200000 1.100000 0.000000
2.400000 2.200000 0.000000
3.600000 3.300000 0.000000
4.800000 4.400000 0.000000
6.000000 5.500000 0.000000
7.200000 6.600000 0.000000
8.400000 7.700000 0.000000
9.600000 8.800000 0.000000
10.800000 9.900000 0.000000
12.000000 11.000000 0.000000
13.200000 12.100000 0.000000
14.400000 13.200000 0.000000
15.600000 14.300000 0.000000
16.800000 15.400000 0.000000
18.000000 16.500000 0.000000
19.200000 17.600000 0.000000
20.400000 18.700000 0.000000
21.600000 19.800000 0.000000
22.800000 20.900000 0.000000
24.000000 22.000000 0.000000
25.200000 23.100000 0.000000
26.400000 24.200000 0.000000
27.600000 25.300000 0.000000
28.800000 26.400000 0.000000
30.000000 27.500000 0.000000
31.200000 28.600000 0.000000
32.400000 29.700000 0.000000
33.600000 30.800000 0.000000
34.800000 31.900000 0.000000
36.000000 33.000000 0.000000
37.200000 34.100000 0.000000
38.400000 35.200000 0.000000
39.600000 36.300000 0.000000
40.800000 37.400000 0.000000
42.000000 38.500000 0.000000
43.200000 39.600000 0.000000
44.400000 40.700000 0.000000
45.600000 41.800000 0.000000
46.800000 42.900000 0.000000
48.000000 44.800000 0.000000
48.000000 45.600000 0.000000
48.000000 46.400000 0.000000
48.000000 47.200000 0.000000
48.000000 48.000000 0.000000
48.000000 48.800000 0.000000
48.000000 49.600000 0.000000
48.000000 50.400000 0.000000
48.000000 51.200000 0.000000
48.000000 52.000000 0.000000
48.000000 52.800000 0.000000
48.000000 53.600000 0.000000
48.000000 54.400000 0.000000
48.000000 55.200000 0.000000
48.000000 56.000000 0.000000
48.000000 56.800000 0.000000
48.000000 57.600000 0.000000
48.000000 58.400000 0.000000
48.000000 59.200000 0.000000
46.800000 59.600000 0.000000
45.600000 59.200000 0.000000
44.400000 58.800000 0.000000
43.200000 58.400000 0.000000
42.000000 58.000000 0.000000
40.800000 57.600000 0.000000
39.600000 57.200000 0.000000
38.400000 56.800000 0.000000
37.200000 56.400000 0.000000
36.000000 56.000000 0.000000
34.800000 55.600000 0.000000
33.600000 55.200000 0.000000
32.400000 54.800000 0.000000
31.200000 54.400000 0.000000
30.000000 54.000000 0.000000
28.800000 53.600000 0.000000
27.600000 53.200000 0.000000
26.400000 52.800000 0.000000
25.200000 52.400000 0.000000
24.000000 52.000000 0.000000
22.800000 51.600000 0.000000
21.600000 51.200000 0.000000
20.400000 50.800000 0.000000
19.200000 50.400000 0.000000
18.000000 50.000000 0.000000
16.800000 49.600000 0.000000
15.600000 49.200000 0.000000
14.400000 48.800000 0.000000
13.200000 48.400000 0.000000
12.000000 48.000000 0.000000
10.800000 47.600000 0.000000
9.600000 47.200000 0.000000
8.400000 46.800000 0.000000
7.200000 46.400000 0.000000
6.000000 46.000000 0.000000
4.800000 45.600000 0.000000
3.600000 45.200000 0.000000
2.400000 44.800000 0.000000
1.200000 44.400000 0.000000
0.000000 41.800000 0.000000
0.000000 39.600000 0.000000
0.000000 37.400000 0.000000
0.000000 35.200000 0.000000
0.000000 33.000000 0.000000
0.000000 30.800000 0.000000
0.000000 28.600000 0.000000
0.000000 26.400000 0.000000
0.000000 24.200000 0.000000
0.000000 22.000000 0.000000
0.000000 19.800000 0.000000
0.000000 17.600000 0.000000
0.000000 15.400000 0.000000
0.000000 13.200000 0.000000
0.000000 11.000000 0.000000
0.000000 8.800000 0.000000
0.000000 6.600000 0.000000
0.000000 4.400000 0.000000
0.000000 2.200000 0.000000
1.200000 3.265000 0.000000
1.200000 5.430000 0.000000
1.200000 7.595000 0.000000
1.200000 9.760000 0.000000
1.200000 11.925000 0.000000
1.200000 14.090000 0.000000
1.200000 16.255000 0.000000
1.200000 18.420000 0.000000
1.200000 20.585000 0.000000
1.200000 22.750000 0.000000
1.200000 24.915000 0.000000
1.200000 27.080000 0.000000
1.200000 29.245000 0.000000
1.200000 31.410000 0.000000
1.200000 33.575000 0.000000
1.200000 35.740000 0.000000
1.200000 37.905000 0.000000
1.200000 40.070000 0.000000
1.200000 42.235000 0.000000
2.400000 4.330000 0.000000
2.400000 6.460000 0.000000
2.400000 8.590000 0.000000
2.400000 10.720000 0.000000
2.400000 12.850000 0.000000
2.400000 14.980000 0.000000
2.400000 17.110000 0.000000
2.400000 19.240000 0.000000
2.400000 21.370000 0.000000
2.400000 23.500000 0.000000
2.400000 25.630000 0.000000
2.400000 27.760000 0.000000
2.400000 29.890000 0.000000
2.400000 32.020000 0.000000
2.400000 34.150000 0.000000
2.400000 36.280000 0.000000
2.400000 38.410000 0.000000
2.400000 40.540000 0.000000
2.400000 42.670000 0.000000
3.600000 5.395000 0.000000
3.600000 7.490000 0.000000
3.600000 9.585000 0.000000
3.600000 11.680000 0.000000
3.600000 13.775000 0.000000
3.600000 15.870000 0.000000
3.600000 17.965000 0.000000
3.600000 20.060000 0.000000
3.600000 22.155000 0.000000
3.600000 24.250000 0.000000
3.600000 26.345000 0.000000
3.600000 28.440000 0.000000
3.600000 30.535000 0.000000
3.600000 32.630000 0.000000
3.600000 34.725000 0.000000
3.600000 36.820000 0.000000
3.600000 38.915000 0.000000
3.600000 41.010000 0.000000
3.600000 43.105000 0.000000
4.800000 6.460000 0.000000
4.800000 8.520000 0.000000
4.800000 10.580000 0.000000
4.800000 12.640000 0.000000
4.800000 14.700000 0.000000
4.800000 16.760000 0.000000
4.800000 18.820000 0.000000
4.800000 20.880000 0.000000
4.800000 22.940000 0.000000
4.800000 25.000000 0.000000
4.800000 27.060000 0.000000
4.800000 29.120000 0.000000
4.800000 31.180000 0.000000
4.800000 33.240000 0.000000
4.800000 35.300000 0.000000
4.800000 37.360000 0.000000
4.800000 39.420000 0.000000
4.800000 41.480000 0.000000
4.800000 43.540000 0.000000
6.000000 7.525000 0.000000
6.000000 9.550000 0.000000
6.000000 11.575000 0.000000
6.000000 13.600000 0.000000
6.000000 15.625000 0.000000
6.000000 17.650000 0.000000
6.000000 19.675000 0.000000
6.000000 21.700000 0.000000
6.000000 23.725000 0.000000
6.000000 25.750000 0.000000
6.000000 27.775000 0.000000
6.000000 29.800000 0.000000
6.000000 31.825000 0.000000
6.000000 33.850000 0.000000
6.000000 35.875000 0.000000
6.000000 37.900000 0.000000
6.000000 39.925000 0.000000
6.000000 41.950000 0.000000
6.000000 43.975000 0.000000
7.200000 8.590000 0.000000
7.200000 10.580000 0.000000
7.200000 12.570000 0.000000
7.200000 14.560000 0.000000
7.200000 16.550000 0.000000
7.200000 18.540000 0.000000
7.200000 20.530000 0.000000
7.200000 22.520000 0.000000
7.200000 24.510000 0.000000
7.200000 26.500000 0.000000
7.200000 28.490000 0.000000
7.200000 30.480000 0.000000
7.200000 32.470000 0.000000
7.200000 34.460000 0.000000
7.200000 36.450000 0.000000
7.200000 38.440000 0.000000
7.200000 40.430000 0.000000
7.200000 42.420000 0.000000
7.200000 44.410000 0.000000
8.400000 9.655000 0.000000
8.400000 11.610000 0.000000
8.400000 13.565000 0.000000
8.400000 15.520000 0.000000
8.400000 17.475000 0.000000
8.400000 19.430000 0.000000
8.400000 21.385000 0.000000
8.400000 23.340000 0.000000
8.400000 25.295000 0.000000
8.400000 27.250000 0.000000
8.400000 29.205000 0.000000
8.400000 31.160000 0.000000
8.400000 33.115000 0.000000
8.400000 35.070000 0.000000
8.400000 37.025000 0.000000
8.400000 38.980000 0.000000
8.400000 40.935000 0.000000
8.400000 42.890000 0.000000
8.400000 44.845000 0.000000
9.600000 10.720000 0.000000
9.600000 12.640000 0.000000
9.600000 14.560000 0.000000
9.600000 16.480000 0.000000
9.600000 18.400000 0.000000
9.600000 20.320000 0.000000
9.600000 22.240000 0.000000
9.600000 24.160000 0.000000
9.600000 26.080000 0.000000
9.600000 28.000000 0.000000
9.600000 29.920000 0.000000
9.600000 31.840000 0.000000
9.600000 33.760000 0.000000
9.600000 35.680000 0.000000
9.600000 37.600000 0.000000
9.600000 39.520000 0.000000
9.600000 41.440000 0.000000
9.600000 43.360000 0.000000
9.600000 45.280000 0.000000
10.800000 11.785000 0.000000
10.800000 13.670000 0.000000
10.800000 15.555000 0.000000
10.800000 17.440000 0.000000
10.800000 19.325000 0.000000
10.800000 21.210000 0.000000
10.800000 23.095000 0.000000
10.800000 24.980000 0.000000
10.800000 26.865000 0.000000
10.800000 28.750000 0.000000
10.800000 30.635000 0.000000
10.800000 32.520000 0.000000
10.800000 34.405000 0.000000
10.800000 36.290000 0.000000
10.800000 38.175000 0.000000
10.800000 40.060000 0.000000
10.800000 41.945000 0.000000
10.800000 43.830000 0.000000
10.800000 45.715000 0.000000
12.000000 12.850000 0.000000
12.000000 14.700000 0.000000
12.000000 16.550000 0.000000
12.000000 18.400000 0.000000
12.000000 20.250000 0.000000
12.000000 22.100000 0.000000
12.000000 23.950000 0.000000
12.000000 25.800000 0.000000
12.000000 27.650000 0.000000
12.000000 29.500000 0.000000
12.000000 31.350000 0.000000
12.000000 33.200000 0.000000
12.000000 35.050000 0.000000
12.000000 36.900000 0.000000
12.000000 38.750000 0.000000
12.000000 40.600000 0.000000
12.000000 42.450000 0.000000
12.000000 44.300000 0.000000
12.000000 46.150000 0.000000
13.200000 13.915000 0.000000
13.200000 15.730000 0.000000
13.200000 17.545000 0.000000
13.200000 19.360000 0.000000
13.200000 21.175000 0.000000
13.200000 22.990000 0.000000
13.200000 24.805000 0.000000
13.200000 26.620000 0.000000
13.200000 28.435000 0.000000
13.200000 30.250000 0.000000
13.200000 32.065000 0.000000
13.200000 33.880000 0.000000
13.200000 35.695000 0.000000
13.200000 37.510000 0.000000
13.200000 39.325000 0.000000
13.200000 41.140000 0.000000
13.200000 42.955000 0.000000
13.200000 44.770000 0.000000
13.200000 46.585000 0.000000
14.400000 14.980000 0.000000
14.400000 16.760000 0.000000
14.400000 18.540000 0.000000
14.400000 20.320000 0.000000
14.400000 22.100000 0.000000
14.400000 23.880000 0.000000
14.400000 25.660000 0.000000
14.400000 27.440000 0.000000
14.400000 29.220000 0.000000
14.400000 31.000000 0.000000
14.400000 32.780000 0.000000
14.400000 34.560000 0.000000
14.400000 36.340000 0.000000
14.400000 38.120000 0.000000
14.400000 39.900000 0.000000
14.400000 41.680000 0.000000
14.400000 43.460000 0.000000
14.400000 45.240000 0.000000
14.400000 47.020000 0.000000
15.600000 16.045000 0.000000
[...]
POINT_DATA 861
VECTORS U float
0.000000 0.000000 0.000000
-2.729987 12.018565 0.000000
-6.700104 13.648386 0.000000
-0.000000 -0.000000 0.000000
0.000000 0.117216 0.000000
0.000002 0.235229 0.000000
0.000004 0.354319 0.000000
0.000008 0.474791 0.000000
0.000013 0.596970 0.000000
0.000021 0.721214 0.000000
0.000030 0.847911 0.000000
0.000042 0.977487 0.000000
0.000056 1.110410 0.000000
0.000072 1.247200 0.000000
0.000092 1.388437 0.000000
0.000115 1.534767 0.000000
0.000141 1.686918 0.000000
0.000170 1.845709 0.000000
0.000203 2.012065 0.000000
0.000239 2.187031 0.000000
0.000279 2.371789 0.000000
0.000322 2.567671 0.000000
0.000369 2.776179 0.000000
0.000419 2.998999 0.000000
-0.057906 3.254679 0.000000
-0.119339 3.523400 0.000000
-0.184282 3.806489 0.000000
-0.253223 4.105313 0.000000
-0.326737 4.421260 0.000000
-0.405505 4.755734 0.000000
-0.490319 5.110129 0.000000
-0.582092 5.485818 0.000000
-0.681867 5.884124 0.000000
-0.790823 6.306300 0.000000
-0.910274 6.753502 0.000000
-1.041670 7.226762 0.000000
-1.186591 7.726965 0.000000
-1.346732 8.254823 0.000000
-1.523885 8.810860 0.000000
-1.719909 9.395398 0.000000
-1.936692 10.008564 0.000000
-2.176113 10.650298 0.000000
-2.439982 11.320397 0.000000
-2.954297 12.018107 0.000000
-3.172914 12.028746 0.000000
-3.386433 12.049743 0.000000
-3.595412 12.080461 0.000000
-3.800382 12.120352 0.000000
-4.001850 12.168949 0.000000
-4.200303 12.225857 0.000000
-4.396207 12.290750 0.000000
-4.590014 12.363364 0.000000
-4.782159 12.443492 0.000000
-4.973065 12.530984 0.000000
-5.163140 12.625739 0.000000
-5.352782 12.727706 0.000000
-5.542381 12.836880 0.000000
-5.732315 12.953298 0.000000
-5.922961 13.077043 0.000000
-6.114690 13.208238 0.000000
-6.307874 13.347049 0.000000
-6.502890 13.493683 0.000000
-6.369441 13.007488 0.000000
-6.051521 12.392682 0.000000
-5.745379 11.802927 0.000000
-5.450146 11.237187 0.000000
-5.165045 10.694418 0.000000
-4.889377 10.173546 0.000000
-4.622519 9.673464 0.000000
-4.363907 9.193031 0.000000
-4.113033 8.731075 0.000000
-3.869442 8.286404 0.000000
-3.632723 7.857809 0.000000
-3.402512 7.444083 0.000000
-3.178482 7.044022 0.000000
-2.960349 6.656445 0.000000
-2.747865 6.280197 0.000000
-2.540818 5.914162 0.000000
-2.339034 5.557274 0.000000
-2.142372 5.208523 0.000000
-1.950728 4.866960 0.000000
-1.764034 4.531712 0.000000
-1.586796 4.207223 0.000000
-1.423771 3.898459 0.000000
-1.274291 3.604565 0.000000
-1.137572 3.324645 0.000000
-1.012749 3.057769 0.000000
-0.898908 2.802979 0.000000
-0.795111 2.559304 0.000000
-0.700427 2.325767 0.000000
-0.613947 2.101402 0.000000
-0.534802 1.885265 0.000000
-0.462180 1.676442 0.000000
-0.395328 1.474062 0.000000
-0.333559 1.277300 0.000000
-0.276255 1.085386 0.000000
-0.222870 0.897608 0.000000
-0.172922 0.713312 0.000000
-0.125992 0.531907 0.000000
-0.081723 0.352858 0.000000
-0.039811 0.175695 0.000000
0.000000 0.000000 0.000000
-0.000000 -0.000000 0.000000
0.000000 0.000000 0.000000
0.000000 0.000000 0.000000
0.000000 0.000000 0.000000
0.000000 0.000000 0.000000
0.000000 0.000000 0.000000
0.000000 0.000000 0.000000
0.000000 0.000000 0.000000
0.000000 0.000000 0.000000
0.000000 0.000000 0.000000
0.000000 0.000000 0.000000
0.000000 0.000000 0.000000
0.000000 0.000000 0.000000
0.000000 0.000000 0.000000
0.000000 0.000000 0.000000
0.000000 0.000000 0.000000
0.000000 0.000000 0.000000
-0.000000 -0.000000 0.000000
0.000001 0.117214 0.000000
0.000001 0.117212 0.000000
0.000001 0.117210 0.000000
0.000001 0.117208 0.000000
0.000001 0.117205 0.000000
0.000001 0.117201 0.000000
0.000001 0.117198 0.000000
0.000001 0.117194 0.000000
0.000001 0.117190 0.000000
0.000001 0.117186 0.000000
0.000001 0.117181 0.000000
0.000001 0.117177 0.000000
0.000001 0.117172 0.000000
0.000001 0.117168 0.000000
0.000001 0.117163 0.000000
0.000001 0.117158 0.000000
0.000001 0.117153 0.000000
0.000001 0.117149 0.000000
0.000001 0.117144 0.000000
0.000002 0.235226 0.000000
0.000003 0.235222 0.000000
0.000003 0.235217 0.000000
0.000003 0.235212 0.000000
0.000004 0.235206 0.000000
0.000004 0.235199 0.000000
0.000004 0.235192 0.000000
0.000004 0.235184 0.000000
0.000005 0.235176 0.000000
0.000005 0.235167 0.000000
0.000005 0.235159 0.000000
0.000005 0.235150 0.000000
0.000005 0.235140 0.000000
0.000005 0.235131 0.000000
0.000005 0.235121 0.000000
0.000005 0.235112 0.000000
0.000005 0.235102 0.000000
0.000005 0.235093 0.000000
-0.040449 0.292225 0.000000
0.000005 0.354314 0.000000
0.000006 0.354308 0.000000
0.000007 0.354301 0.000000
0.000008 0.354293 0.000000
0.000008 0.354283 0.000000
0.000009 0.354273 0.000000
0.000010 0.354262 0.000000
0.000010 0.354251 0.000000
0.000011 0.354239 0.000000
0.000011 0.354226 0.000000
0.000012 0.354212 0.000000
0.000012 0.354199 0.000000
0.000012 0.354185 0.000000
0.000012 0.354170 0.000000
0.000012 0.354156 0.000000
0.000012 0.354142 0.000000
0.000012 0.354128 0.000000
-0.041107 0.409794 0.000000
-0.083037 0.468942 0.000000
0.000010 0.474784 0.000000
0.000011 0.474775 0.000000
0.000013 0.474765 0.000000
0.000014 0.474754 0.000000
0.000015 0.474741 0.000000
0.000017 0.474728 0.000000
0.000018 0.474713 0.000000
0.000019 0.474697 0.000000
0.000020 0.474681 0.000000
0.000020 0.474664 0.000000
0.000021 0.474646 0.000000
0.000021 0.474628 0.000000
0.000022 0.474609 0.000000
0.000022 0.474590 0.000000
0.000022 0.474571 0.000000
0.000021 0.474553 0.000000
-0.041783 0.528705 0.000000
-0.084391 0.586318 0.000000
-0.128020 0.647720 0.000000
0.000016 0.596961 0.000000
0.000018 0.596950 0.000000
0.000021 0.596938 0.000000
0.000023 0.596923 0.000000
0.000025 0.596907 0.000000
0.000027 0.596890 0.000000
0.000028 0.596871 0.000000
0.000030 0.596852 0.000000
0.000031 0.596831 0.000000
0.000032 0.596809 0.000000
0.000033 0.596787 0.000000
0.000034 0.596764 0.000000
0.000034 0.596741 0.000000
0.000034 0.596718 0.000000
0.000034 0.596695 0.000000
-0.042480 0.649282 0.000000
-0.085787 0.705311 0.000000
-0.130111 0.765101 0.000000
-0.175708 0.829044 0.000000
0.000024 0.721203 0.000000
0.000028 0.721190 0.000000
0.000031 0.721174 0.000000
0.000034 0.721157 0.000000
0.000037 0.721137 0.000000
0.000040 0.721116 0.000000
0.000042 0.721094 0.000000
0.000044 0.721070 0.000000
0.000046 0.721045 0.000000
0.000047 0.721019 0.000000
0.000048 0.720993 0.000000
0.000049 0.720965 0.000000
0.000049 0.720938 0.000000
0.000049 0.720911 0.000000
-0.043199 0.771879 0.000000
-0.087229 0.826271 0.000000
-0.132270 0.884397 0.000000
-0.178584 0.946639 0.000000
-0.226468 1.013455 0.000000
0.000035 0.847898 0.000000
0.000040 0.847882 0.000000
0.000044 0.847863 0.000000
0.000048 0.847843 0.000000
0.000052 0.847820 0.000000
0.000055 0.847795 0.000000
0.000058 0.847769 0.000000
0.000061 0.847741 0.000000
0.000063 0.847712 0.000000
0.000065 0.847682 0.000000
0.000066 0.847651 0.000000
0.000067 0.847620 0.000000
0.000067 0.847588 0.000000
-0.043941 0.896881 0.000000
-0.088719 0.949581 0.000000
-0.134501 1.005989 0.000000
-0.181554 1.066476 0.000000
-0.230183 1.131489 0.000000
-0.280725 1.201558 0.000000
0.000048 0.977471 0.000000
0.000054 0.977452 0.000000
0.000060 0.977431 0.000000
0.000065 0.977407 0.000000
0.000070 0.977381 0.000000
0.000074 0.977352 0.000000
0.000078 0.977322 0.000000
0.000081 0.977290 0.000000
0.000084 0.977257 0.000000
0.000086 0.977223 0.000000
0.000087 0.977188 0.000000
0.000088 0.977153 0.000000
-0.044707 1.024711 0.000000
-0.090258 1.075661 0.000000
-0.136806 1.130294 0.000000
-0.184623 1.188969 0.000000
-0.234019 1.252123 0.000000
-0.285341 1.320272 0.000000
-0.338970 1.394020 0.000000
0.000064 1.110392 0.000000
0.000071 1.110370 0.000000
0.000078 1.110346 0.000000
0.000085 1.110319 0.000000
0.000090 1.110289 0.000000
0.000096 1.110257 0.000000
0.000100 1.110223 0.000000
0.000104 1.110188 0.000000
0.000107 1.110151 0.000000
0.000110 1.110112 0.000000
0.000111 1.110074 0.000000
-0.045499 1.155835 0.000000
-0.091851 1.204974 0.000000
-0.139191 1.257771 0.000000
-0.187797 1.314576 0.000000
-0.237985 1.375810 0.000000
-0.290109 1.441979 0.000000
-0.344559 1.513672 0.000000
-0.401763 1.591570 0.000000
0.000082 1.247180 0.000000
0.000091 1.247156 0.000000
0.000100 1.247128 0.000000
0.000107 1.247098 0.000000
0.000114 1.247065 0.000000
0.000121 1.247030 0.000000
0.000126 1.246992 0.000000
0.000130 1.246953 0.000000
0.000134 1.246912 0.000000
0.000136 1.246870 0.000000
-0.046319 1.290768 0.000000
-0.093501 1.338032 0.000000
-0.141659 1.388931 0.000000
-0.191080 1.443802 0.000000
-0.242086 1.503055 0.000000
-0.295039 1.567181 0.000000
-0.350335 1.636756 0.000000
-0.408410 1.712444 0.000000
-0.469734 1.794999 0.000000
0.000104 1.388414 0.000000
0.000114 1.388387 0.000000
0.000124 1.388357 0.000000
0.000133 1.388324 0.000000
0.000142 1.388287 0.000000
0.000149 1.388248 0.000000
0.000155 1.388207 0.000000
0.000160 1.388165 0.000000
0.000163 1.388120 0.000000
-0.047170 1.430085 0.000000
-0.095210 1.475406 0.000000
-0.144216 1.524340 0.000000
-0.194479 1.577212 0.000000
-0.246331 1.634418 0.000000
-0.300138 1.696436 0.000000
-0.356307 1.763825 0.000000
-0.415281 1.837235 0.000000
-0.477537 1.917402 0.000000
-0.543583 2.005155 0.000000
0.000128 1.534742 0.000000
0.000141 1.534712 0.000000
0.000152 1.534679 0.000000
0.000163 1.534643 0.000000
0.000172 1.534604 0.000000
0.000180 1.534561 0.000000
0.000187 1.534517 0.000000
0.000192 1.534471 0.000000
-0.048052 1.574429 0.000000
-0.096984 1.617735 0.000000
-0.146867 1.664634 0.000000
-0.198002 1.715438 0.000000
-0.250727 1.770530 0.000000
-0.305416 1.830370 0.000000
-0.362486 1.895504 0.000000
-0.422386 1.966563 0.000000
-0.485604 2.044269 0.000000
-0.552656 2.129430 0.000000
-0.624080 2.222940 0.000000
0.000156 1.686890 0.000000
0.000170 1.686858 0.000000
0.000183 1.686823 0.000000
0.000195 1.686784 0.000000
0.000206 1.686741 0.000000
0.000214 1.686696 0.000000
0.000222 1.686649 0.000000
-0.048969 1.724521 0.000000
-0.098825 1.765737 0.000000
-0.149618 1.810528 0.000000
-0.201655 1.859192 0.000000
-0.255283 1.912096 0.000000
-0.310884 1.969686 0.000000
-0.368882 2.032491 0.000000
-0.429739 2.101125 0.000000
-0.493949 2.176292 0.000000
-0.562038 2.258781 0.000000
-0.634553 2.349469 0.000000
-0.712057 2.449305 0.000000
0.000187 1.845679 0.000000
0.000203 1.845645 0.000000
0.000218 1.845607 0.000000
0.000231 1.845565 0.000000
0.000242 1.845519 0.000000
0.000252 1.845471 0.000000
-0.049923 1.881176 0.000000
-0.100739 1.920222 0.000000
-0.152475 1.962827 0.000000
-0.205447 2.009273 0.000000
-0.260008 2.059914 0.000000
-0.316551 2.115178 0.000000
-0.375509 2.175577 0.000000
-0.437352 2.241707 0.000000
-0.502585 2.314254 0.000000
-0.571744 2.393987 0.000000
-0.645385 2.481765 0.000000
-0.724082 2.578517 0.000000
-0.808403 2.685240 0.000000
0.000222 2.012033 0.000000
0.000240 2.011996 0.000000
0.000256 2.011956 0.000000
0.000270 2.011911 0.000000
0.000282 2.011863 0.000000
-0.050917 2.045313 0.000000
-0.102730 2.082104 0.000000
-0.155445 2.122440 0.000000
-0.209385 2.166589 0.000000
-0.264912 2.214886 0.000000
-0.322430 2.267744 0.000000
-0.382380 2.325656 0.000000
-0.445242 2.389200 0.000000
-0.511530 2.459041 0.000000
-0.581792 2.535931 0.000000
-0.656595 2.620705 0.000000
-0.736520 2.714276 0.000000
-0.822150 2.817622 0.000000
-0.914048 2.931768 0.000000
0.000260 2.186997 0.000000
0.000280 2.186958 0.000000
0.000297 2.186915 0.000000
0.000312 2.186869 0.000000
-0.051954 2.217968 0.000000
-0.104804 2.252415 0.000000
-0.158535 2.290396 0.000000
-0.213478 2.332162 0.000000
-0.270007 2.378032 0.000000
-0.328534 2.428400 0.000000
-0.389508 2.483740 0.000000
-0.453422 2.544611 0.000000
-0.520801 2.611657 0.000000
-0.592201 2.685610 0.000000
-0.668202 2.767284 0.000000
-0.749396 2.857573 0.000000
-0.836374 2.957433 0.000000
-0.929711 3.067874 0.000000
-1.029948 3.189931 0.000000
0.000302 2.371753 0.000000
0.000323 2.371712 0.000000
0.000342 2.371667 0.000000
-0.053038 2.400318 0.000000
-0.106967 2.432325 0.000000
-0.161753 2.467859 0.000000
-0.217738 2.507152 0.000000
-0.275305 2.550506 0.000000
-0.334874 2.598295 0.000000
-0.396909 2.650974 0.000000
-0.461911 2.709080 0.000000
-0.530416 2.773238 0.000000
-0.602992 2.844156 0.000000
-0.680230 2.922629 0.000000
-0.762733 3.009528 0.000000
-0.851102 3.105791 0.000000
-0.945923 3.212407 0.000000
-1.047746 3.330395 0.000000
-1.157064 3.460782 0.000000
0.000347 2.567633 0.000000
0.000369 2.567591 0.000000
-0.054170 2.593687 0.000000
-0.109224 2.623153 0.000000
-0.165107 2.656142 0.000000
-0.222174 2.692868 0.000000
-0.280817 2.733611 0.000000
-0.341468 2.778728 0.000000
-0.404600 2.828651 0.000000
-0.470726 2.883897 0.000000
-0.540395 2.945067 0.000000
-0.614186 3.012850 0.000000
-0.692702 3.088015 0.000000
-0.776556 3.171413 0.000000
-0.866361 3.263959 0.000000
-0.962715 3.366625 0.000000
-1.066174 3.480412 0.000000
-1.177241 3.606332 0.000000
-1.296335 3.745371 0.000000
0.000395 2.776140 0.000000
-0.055357 2.799568 0.000000
-0.111582 2.826386 0.000000
-0.168608 2.856726 0.000000
-0.226799 2.890783 0.000000
-0.286558 2.928817 0.000000
-0.348329 2.971163 0.000000
-0.412598 3.018231 0.000000
-0.479888 3.070516 0.000000
-0.550760 3.128596 0.000000
-0.625807 3.193134 0.000000
-0.705642 3.264880 0.000000
-0.790893 3.344658 0.000000
-0.882183 3.433365 0.000000
-0.980119 3.531950 0.000000
-1.085269 3.641397 0.000000
-1.198142 3.762702 0.000000
-1.319163 3.896842 0.000000
-1.448652 4.044738 0.000000
-0.056600 3.019639 0.000000
-0.114049 3.043693 0.000000
-0.172264 3.071274 0.000000
-0.231624 3.102555 0.000000
-0.292542 3.137776 0.000000
-0.355476 3.177246 0.000000
-0.420922 3.221355 0.000000
-0.489417 3.270572 0.000000
-0.561535 3.325452 0.000000
-0.637880 3.386634 0.000000
-0.719080 3.454841 0.000000
-0.805774 3.530877 0.000000
-0.898598 3.615614 0.000000
-0.998170 3.709979 0.000000
-1.105067 3.814941 0.000000
-1.219806 3.931477 0.000000
-1.342820 4.060554 0.000000
-1.474429 4.203086 0.000000
-1.614822 4.359904 0.000000
-0.116631 3.275848 0.000000
-0.176088 3.300553 0.000000
-0.236663 3.328945 0.000000
-0.298787 3.361240 0.000000
-0.362927 3.397724 0.000000
-0.429593 3.438763 0.000000
-0.499336 3.484800 0.000000
-0.572743 3.536365 0.000000
-0.650433 3.594071 0.000000
-0.733045 3.658617 0.000000
-0.821231 3.730780 0.000000
-0.915642 3.811409 0.000000
-1.016905 3.901411 0.000000
-1.125608 4.001733 0.000000
-1.242278 4.113338 0.000000
-1.367351 4.237180 0.000000
-1.501152 4.374167 0.000000
-1.643871 4.525128 0.000000
-1.795538 4.690770 0.000000
-0.180089 3.545104 0.000000
-0.241932 3.570486 0.000000
-0.305309 3.599737 0.000000
-0.370701 3.633120 0.000000
-0.438634 3.670972 0.000000
-0.509671 3.713711 0.000000
-0.584414 3.761840 0.000000
-0.663495 3.815945 0.000000
-0.747568 3.876698 0.000000
-0.837300 3.944851 0.000000
-0.933351 4.021228 0.000000
-1.036364 4.106713 0.000000
-1.146937 4.202234 0.000000
-1.265603 4.308737 0.000000
-1.392807 4.427164 0.000000
-1.528876 4.558415 0.000000
-1.674000 4.703317 0.000000
-1.828206 4.862584 0.000000
-1.985936 5.032295 0.000000
-0.247446 3.828733 0.000000
-0.312127 3.854816 0.000000
-0.378821 3.884973 0.000000
-0.448069 3.919514 0.000000
-0.520448 3.958829 0.000000
-0.596576 4.003393 0.000000
-0.677098 4.053765 0.000000
-0.762685 4.110588 0.000000
-0.854016 4.174587 0.000000
-0.951767 4.246559 0.000000
-1.056592 4.327367 0.000000
-1.169100 4.417916 0.000000
-1.289833 4.519137 0.000000
-1.419242 4.631957 0.000000
-1.557659 4.757271 0.000000
-1.705273 4.895904 0.000000
-1.862106 5.048575 0.000000
-2.022461 5.211588 0.000000
-2.181404 5.381201 0.000000
-0.319262 4.128093 0.000000
-0.387311 4.154893 0.000000
-0.457925 4.185992 0.000000
-0.531697 4.221752 0.000000
-0.609261 4.262616 0.000000
-0.691278 4.309115 0.000000
-0.778433 4.361861 0.000000
-0.871422 4.421553 0.000000
-0.970934 4.488961 0.000000
-1.077635 4.564921 0.000000
-1.192147 4.650319 0.000000
-1.315022 4.746067 0.000000
-1.446715 4.853080 0.000000
-1.587564 4.972245 0.000000
-1.737756 5.104386 0.000000
-1.897310 5.250228 0.000000
-2.060380 5.406311 0.000000
-2.221913 5.569088 0.000000
-2.382017 5.738409 0.000000
-0.396196 4.444563 0.000000
-0.468230 4.472081 0.000000
-0.543450 4.504144 0.000000
-0.622504 4.541166 0.000000
-0.706071 4.583643 0.000000
-0.794853 4.632160 0.000000
-0.889561 4.687383 0.000000
-0.990898 4.750057 0.000000
-1.099545 4.820990 0.000000
-1.216135 4.901047 0.000000
-1.341229 4.991121 0.000000
-1.475291 5.092115 0.000000
-1.618659 5.204907 0.000000
-1.771523 5.330321 0.000000
-1.933896 5.469088 0.000000
-2.099778 5.617997 0.000000
-2.263986 5.773706 0.000000
-2.426643 5.936052 0.000000
-2.587884 6.104911 0.000000
-0.479017 4.779523 0.000000
-0.555741 4.807742 0.000000
-0.636343 4.840768 0.000000
-0.721520 4.879068 0.000000
-0.811990 4.923193 0.000000
-0.908481 4.973777 0.000000
-1.011711 5.031536 0.000000
-1.122377 5.097253 0.000000
-1.241122 5.171768 0.000000
-1.368518 5.255956 0.000000
-1.505036 5.350706 0.000000
-1.651019 5.456889 0.000000
-1.806653 5.575327 0.000000
-1.971950 5.706759 0.000000
-2.140742 5.848237 0.000000
-2.307718 5.996632 0.000000
-2.473009 6.151770 0.000000
-2.636765 6.313512 0.000000
-2.799153 6.481758 0.000000
-0.568608 5.134345 0.000000
-0.650819 5.163215 0.000000
-0.737668 5.197172 0.000000
-0.829892 5.236731 0.000000
-0.928233 5.282496 0.000000
-1.033430 5.335151 0.000000
-1.146191 5.395451 0.000000
-1.267173 5.464211 0.000000
-1.396959 5.542288 0.000000
-1.536027 5.630556 0.000000
-1.684723 5.729880 0.000000
-1.843233 5.841080 0.000000
-2.011562 5.964902 0.000000
-2.183373 6.098677 0.000000
-2.353210 6.239501 0.000000
-2.521222 6.387183 0.000000
-2.687571 6.541573 0.000000
-2.852436 6.702555 0.000000
-3.016007 6.870052 0.000000
-0.665978 5.510362 0.000000
-0.754565 5.539799 0.000000
-0.848611 5.574610 0.000000
-0.948876 5.615365 0.000000
-1.056115 5.662713 0.000000
-1.171052 5.717383 0.000000
-1.294359 5.780164 0.000000
-1.426628 5.851892 0.000000
-1.568345 5.933427 0.000000
-1.719858 6.025625 0.000000
-1.881355 6.129308 0.000000
-2.052834 6.245230 0.000000
-2.227774 6.371014 0.000000
-2.400574 6.503994 0.000000
-2.571397 6.643963 0.000000
-2.740420 6.790753 0.000000
-2.907837 6.944234 0.000000
-3.073849 7.104313 0.000000
-3.238668 7.270936 0.000000
-0.772264 5.908855 0.000000
-0.868204 5.938724 0.000000
-0.970470 5.974264 0.000000
-1.079832 6.016093 0.000000
-1.197033 6.064907 0.000000
-1.322756 6.121469 0.000000
-1.457607 6.186595 0.000000
-1.602077 6.261129 0.000000
-1.756521 6.345920 0.000000
-1.921122 6.441791 0.000000
-2.095874 6.549504 0.000000
-2.274062 6.666993 0.000000
-2.449931 6.791842 0.000000
-2.623659 6.923825 0.000000
-2.795441 7.062755 0.000000
-2.965486 7.208486 0.000000
-3.134008 7.360909 0.000000
-3.301234 7.519954 0.000000
-3.467394 7.685587 0.000000
-0.888736 6.331021 0.000000
-0.993083 6.361131 0.000000
-1.104655 6.397213 0.000000
-1.224211 6.439930 0.000000
-1.352449 6.490020 0.000000
-1.489986 6.548274 0.000000
-1.637322 6.615524 0.000000
-1.794813 6.692609 0.000000
-1.962644 6.780354 0.000000
-2.140800 6.879531 0.000000
-2.322363 6.988401 0.000000
-2.501411 7.104815 0.000000
-2.678144 7.228525 0.000000
-2.852774 7.359323 0.000000
-3.025526 7.497043 0.000000
-3.196632 7.641559 0.000000
-3.366330 7.792785 0.000000
-3.534865 7.950670 0.000000
-3.702485 8.115202 0.000000
-1.016789 6.777952 0.000000
-1.130663 6.808045 0.000000
-1.252671 6.844411 0.000000
-1.383529 6.887757 0.000000
-1.523863 6.938854 0.000000
-1.674183 6.998516 0.000000
-1.834849 7.067578 0.000000
-2.006043 7.146863 0.000000
-2.187743 7.237154 0.000000
-2.372814 7.337064 0.000000
-2.555159 7.444722 0.000000
-2.735001 7.559855 0.000000
-2.912572 7.682233 0.000000
-3.088115 7.811669 0.000000
-3.261878 7.948016 0.000000
-3.434115 8.091169 0.000000
-3.605087 8.241063 0.000000
-3.775055 8.397667 0.000000
-3.944282 8.560990 0.000000
-1.157943 7.250608 0.000000
-1.282508 7.280350 0.000000
-1.416096 7.316665 0.000000
-1.559347 7.360300 0.000000
-1.712778 7.412053 0.000000
-1.876753 7.472751 0.000000
-2.051452 7.543220 0.000000
-2.236845 7.624256 0.000000
-2.425565 7.714841 0.000000
-2.611332 7.813402 0.000000
-2.794393 7.919639 0.000000