# vtk DataFile Version 2.0
cantilever_tri3_mix
ASCII
DATASET POLYDATA
POINTS 1105 float
0.000000 -6.000000 0.000000
48.000000 -6.000000 0.000000
48.000000 6.000000 0.000000
0.000000 6.000000 0.000000
0.750000 -6.000000 0.000000
1.500000 -6.000000 0.000000
2.250000 -6.000000 0.000000
3.000000 -6.000000 0.000000
3.750000 -6.000000 0.000000
4.500000 -6.000000 0.000000
5.250000 -6.000000 0.000000
6.000000 -6.000000 0.000000
6.750000 -6.000000 0.000000
7.500000 -6.000000 0.000000
8.250000 -6.000000 0.000000
9.000000 -6.000000 0.000000
9.750000 -6.000000 0.000000
10.500000 -6.000000 0.000000
11.250000 -6.000000 0.000000
12.000000 -6.000000 0.000000
12.750000 -6.000000 0.000000
13.500000 -6.000000 0.000000
14.250000 -6.000000 0.000000
15.000000 -6.000000 0.000000
15.750000 -6.000000 0.000000
16.500000 -6.000000 0.000000
17.250000 -6.000000 0.000000
18.000000 -6.000000 0.000000
18.750000 -6.000000 0.000000
19.500000 -6.000000 0.000000
20.250000 -6.000000 0.000000
21.000000 -6.000000 0.000000
21.750000 -6.000000 0.000000
22.500000 -6.000000 0.000000
23.250000 -6.000000 0.000000
24.000000 -6.000000 0.000000
24.750000 -6.000000 0.000000
25.500000 -6.000000 0.000000
26.250000 -6.000000 0.000000
27.000000 -6.000000 0.000000
27.750000 -6.000000 0.000000
28.500000 -6.000000 0.000000
29.250000 -6.000000 0.000000
30.000000 -6.000000 0.000000
30.750000 -6.000000 0.000000
31.500000 -6.000000 0.000000
32.250000 -6.000000 0.000000
33.000000 -6.000000 0.000000
33.750000 -6.000000 0.000000
34.500000 -6.000000 0.000000
35.250000 -6.000000 0.000000
36.000000 -6.000000 0.000000
36.750000 -6.000000 0.000000
37.500000 -6.000000 0.000000
38.250000 -6.000000 0.000000
39.000000 -6.000000 0.000000
39.750000 -6.000000 0.000000
40.500000 -6.000000 0.000000
41.250000 -6.000000 0.000000
42.000000 -6.000000 0.000000
42.750000 -6.000000 0.000000
43.500000 -6.000000 0.000000
44.250000 -6.000000 0.000000
45.000000 -6.000000 0.000000
45.750000 -6.000000 0.000000
46.500000 -6.000000 0.000000
47.250000 -6.000000 0.000000
48.000000 -5.250000 0.000000
48.000000 -4.500000 0.000000
48.000000 -3.750000 0.000000
48.000000 -3.000000 0.000000
48.000000 -2.250000 0.000000
48.000000 -1.500000 0.000000
48.000000 -0.750000 0.000000
48.000000 -0.000000 0.000000
48.000000 0.750000 0.000000
48.000000 1.500000 0.000000
48.000000 2.250000 0.000000
48.000000 3.000000 0.000000
48.000000 3.750000 0.000000
48.000000 4.500000 0.000000
48.000000 5.250000 0.000000
47.250000 6.000000 0.000000
46.500000 6.000000 0.000000
45.750000 6.000000 0.000000
45.000000 6.000000 0.000000
44.250000 6.000000 0.000000
43.500000 6.000000 0.000000
42.750000 6.000000 0.000000
42.000000 6.000000 0.000000
41.250000 6.000000 0.000000
40.500000 6.000000 0.000000
39.750000 6.000000 0.000000
39.000000 6.000000 0.000000
38.250000 6.000000 0.000000
37.500000 6.000000 0.000000
36.750000 6.000000 0.000000
36.000000 6.000000 0.000000
35.250000 6.000000 0.000000
34.500000 6.000000 0.000000
33.750000 6.000000 0.000000
33.000000 6.000000 0.000000
32.250000 6.000000 0.000000
31.500000 6.000000 0.000000
30.750000 6.000000 0.000000
30.000000 6.000000 0.000000
29.250000 6.000000 0.000000
28.500000 6.000000 0.000000
27.750000 6.000000 0.000000
27.000000 6.000000 0.000000
26.250000 6.000000 0.000000
25.500000 6.000000 0.000000
24.750000 6.000000 0.000000
24.000000 6.000000 0.000000
23.250000 6.000000 0.000000
22.500000 6.000000 0.000000
21.750000 6.000000 0.000000
21.000000 6.000000 0.000000
20.250000 6.000000 0.000000
19.500000 6.000000 0.000000
18.750000 6.000000 0.000000
18.000000 6.000000 0.000000
17.250000 6.000000 0.000000
16.500000 6.000000 0.000000
15.750000 6.000000 0.000000
15.000000 6.000000 0.000000
14.250000 6.000000 0.000000
13.500000 6.000000 0.000000
12.750000 6.000000 0.000000
12.000000 6.000000 0.000000
11.250000 6.000000 0.000000
10.500000 6.000000 0.000000
9.750000 6.000000 0.000000
9.000000 6.000000 0.000000
8.250000 6.000000 0.000000
7.500000 6.000000 0.000000
6.750000 6.000000 0.000000
6.000000 6.000000 0.000000
5.250000 6.000000 0.000000
4.500000 6.000000 0.000000
3.750000 6.000000 0.000000
3.000000 6.000000 0.000000
2.250000 6.000000 0.000000
1.500000 6.000000 0.000000
0.750000 6.000000 0.000000
0.000000 5.250000 0.000000
0.000000 4.500000 0.000000
0.000000 3.750000 0.000000
0.000000 3.000000 0.000000
0.000000 2.250000 0.000000
0.000000 1.500000 0.000000
0.000000 0.750000 0.000000
0.000000 0.000000 0.000000
0.000000 -0.750000 0.000000
0.000000 -1.500000 0.000000
0.000000 -2.250000 0.000000
0.000000 -3.000000 0.000000
0.000000 -3.750000 0.000000
0.000000 -4.500000 0.000000
0.000000 -5.250000 0.000000
0.750000 -5.250000 0.000000
0.750000 -4.500000 0.000000
0.750000 -3.750000 0.000000
0.750000 -3.000000 0.000000
0.750000 -2.250000 0.000000
0.750000 -1.500000 0.000000
0.750000 -0.750000 0.000000
0.750000 0.000000 0.000000
0.750000 0.750000 0.000000
0.750000 1.500000 0.000000
0.750000 2.250000 0.000000
0.750000 3.000000 0.000000
0.750000 3.750000 0.000000
0.750000 4.500000 0.000000
0.750000 5.250000 0.000000
1.500000 -5.250000 0.000000
1.500000 -4.500000 0.000000
1.500000 -3.750000 0.000000
1.500000 -3.000000 0.000000
1.500000 -2.250000 0.000000
1.500000 -1.500000 0.000000
1.500000 -0.750000 0.000000
1.500000 0.000000 0.000000
1.500000 0.750000 0.000000
1.500000 1.500000 0.000000
1.500000 2.250000 0.000000
1.500000 3.000000 0.000000
1.500000 3.750000 0.000000
1.500000 4.500000 0.000000
1.500000 5.250000 0.000000
2.250000 -5.250000 0.000000
2.250000 -4.500000 0.000000
2.250000 -3.750000 0.000000
2.250000 -3.000000 0.000000
2.250000 -2.250000 0.000000
2.250000 -1.500000 0.000000
2.250000 -0.750000 0.000000
2.250000 0.000000 0.000000
2.250000 0.750000 0.000000
2.250000 1.500000 0.000000
2.250000 2.250000 0.000000
2.250000 3.000000 0.000000
2.250000 3.750000 0.000000
2.250000 4.500000 0.000000
2.250000 5.250000 0.000000
3.000000 -5.250000 0.000000
3.000000 -4.500000 0.000000
3.000000 -3.750000 0.000000
3.000000 -3.000000 0.000000
3.000000 -2.250000 0.000000
3.000000 -1.500000 0.000000
3.000000 -0.750000 0.000000
3.000000 0.000000 0.000000
3.000000 0.750000 0.000000
3.000000 1.500000 0.000000
3.000000 2.250000 0.000000
3.000000 3.000000 0.000000
3.000000 3.750000 0.000000
3.000000 4.500000 0.000000
3.000000 5.250000 0.000000
3.750000 -5.250000 0.000000
3.750000 -4.500000 0.000000
3.750000 -3.750000 0.000000
3.750000 -3.000000 0.000000
3.750000 -2.250000 0.000000
3.750000 -1.500000 0.000000
3.750000 -0.750000 0.000000
3.750000 0.000000 0.000000
3.750000 0.750000 0.000000
3.750000 1.500000 0.000000
3.750000 2.250000 0.000000
3.750000 3.000000 0.000000
3.750000 3.750000 0.000000
3.750000 4.500000 0.000000
3.750000 5.250000 0.000000
4.500000 -5.250000 0.000000
4.500000 -4.500000 0.000000
4.500000 -3.750000 0.000000
4.500000 -3.000000 0.000000
4.500000 -2.250000 0.000000
4.500000 -1.500000 0.000000
4.500000 -0.750000 0.000000
4.500000 0.000000 0.000000
4.500000 0.750000 0.000000
4.500000 1.500000 0.000000
4.500000 2.250000 0.000000
4.500000 3.000000 0.000000
4.500000 3.750000 0.000000
4.500000 4.500000 0.000000
4.500000 5.250000 0.000000
5.250000 -5.250000 0.000000
5.250000 -4.500000 0.000000
5.250000 -3.750000 0.000000
5.250000 -3.000000 0.000000
5.250000 -2.250000 0.000000
5.250000 -1.500000 0.000000
5.250000 -0.750000 0.000000
5.250000 0.000000 0.000000
5.250000 0.750000 0.000000
5.250000 1.500000 0.000000
5.250000 2.250000 0.000000
5.250000 3.000000 0.000000
5.250000 3.750000 0.000000
5.250000 4.500000 0.000000
5.250000 5.250000 0.000000
6.000000 -5.250000 0.000000
6.000000 -4.500000 0.000000
6.000000 -3.750000 0.000000
6.000000 -3.000000 0.000000
6.000000 -2.250000 0.000000
6.000000 -1.500000 0.000000
6.000000 -0.750000 0.000000
6.000000 0.000000 0.000000
6.000000 0.750000 0.000000
6.000000 1.500000 0.000000
6.000000 2.250000 0.000000
6.000000 3.000000 0.000000
6.000000 3.750000 0.000000
6.000000 4.500000 0.000000
6.000000 5.250000 0.000000
6.750000 -5.250000 0.000000
6.750000 -4.500000 0.000000
6.750000 -3.750000 0.000000
6.750000 -3.000000 0.000000
6.750000 -2.250000 0.000000
6.750000 -1.500000 0.000000
6.750000 -0.750000 0.000000
6.750000 0.000000 0.000000
6.750000 0.750000 0.000000
6.750000 1.500000 0.000000
6.750000 2.250000 0.000000
6.750000 3.000000 0.000000
6.750000 3.750000 0.000000
6.750000 4.500000 0.000000
6.750000 5.250000 0.000000
7.500000 -5.250000 0.000000
7.500000 -4.500000 0.000000
7.500000 -3.750000 0.000000
7.500000 -3.000000 0.000000
7.500000 -2.250000 0.000000
7.500000 -1.500000 0.000000
7.500000 -0.750000 0.000000
7.500000 0.000000 0.000000
7.500000 0.750000 0.000000
7.500000 1.500000 0.000000
7.500000 2.250000 0.000000
7.500000 3.000000 0.000000
7.500000 3.750000 0.000000
7.500000 4.500000 0.000000
7.500000 5.250000 0.000000
8.250000 -5.250000 0.000000
8.250000 -4.500000 0.000000
8.250000 -3.750000 0.000000
8.250000 -3.000000 0.000000
8.250000 -2.250000 0.000000
8.250000 -1.500000 0.000000
8.250000 -0.750000 0.000000
8.250000 0.000000 0.000000
8.250000 0.750000 0.000000
8.250000 1.500000 0.000000
8.250000 2.250000 0.000000
8.250000 3.000000 0.000000
8.250000 3.750000 0.000000
8.250000 4.500000 0.000000
8.250000 5.250000 0.000000
9.000000 -5.250000 0.000000
9.000000 -4.500000 0.000000
9.000000 -3.750000 0.000000
9.000000 -3.000000 0.000000
9.000000 -2.250000 0.000000
9.000000 -1.500000 0.000000
9.000000 -0.750000 0.000000
9.000000 0.000000 0.000000
9.000000 0.750000 0.000000
9.000000 1.500000 0.000000
9.000000 2.250000 0.000000
9.000000 3.000000 0.000000
9.000000 3.750000 0.000000
9.000000 4.500000 0.000000
9.000000 5.250000 0.000000
9.750000 -5.250000 0.000000
9.750000 -4.500000 0.000000
9.750000 -3.750000 0.000000
9.750000 -3.000000 0.000000
9.750000 -2.250000 0.000000
9.750000 -1.500000 0.000000
9.750000 -0.750000 0.000000
9.750000 0.000000 0.000000
9.750000 0.750000 0.000000
9.750000 1.500000 0.000000
9.750000 2.250000 0.000000
9.750000 3.000000 0.000000
9.750000 3.750000 0.000000
9.750000 4.500000 0.000000
9.750000 5.250000 0.000000
10.500000 -5.250000 0.000000
[...]
POINT_DATA 1105
SCALARS P float 1
LOOKUP_TABLE default
3411.970100
0.249520
0.038251
-2178.473778
706.721312
762.099260
801.574164
832.870317
852.033987
860.782078
861.765513
857.140222
848.620664
837.475041
824.604344
810.628578
795.962651
780.876907
765.542979
750.066973
734.512671
718.917250
703.301617
687.677029
672.049205
656.420810
640.792909
625.165787
609.539393
593.913562
578.288118
562.662917
547.037852
531.412854
515.787881
500.162910
484.537931
468.912940
453.287938
437.662928
422.037912
406.412893
390.787873
375.162853
359.537836
343.912820
328.287806
312.662795
297.037785
281.412778
265.787772
250.162768
234.537766
218.912764
203.287764
187.662766
172.037769
156.412774
140.787780
125.162790
109.537799
93.912827
78.287796
62.663020
47.037186
31.415739
15.779444
0.147887
0.164280
0.161479
0.162613
0.162528
0.162637
0.162655
0.162672
0.162677
0.162667
0.162704
0.162596
0.163391
0.162102
0.177518
-15.427740
-31.089202
-46.710310
-62.337131
-77.961994
-93.587147
-109.212170
-124.837199
-140.462214
-156.087224
-171.712230
-187.337234
-202.962235
-218.587235
-234.212234
-249.837231
-265.462227
-281.087221
-296.712214
-312.337204
-327.962192
-343.587177
-359.212159
-374.837139
-390.462118
-406.087095
-421.712075
-437.337062
-452.962063
-468.587091
-484.212163
-499.837309
-515.462571
-531.088010
-546.713716
-562.339815
-577.966479
-593.593940
-609.222487
-624.852459
-640.484197
-656.117934
-671.753549
-687.390112
-703.025033
-718.652590
-734.261424
-749.830443
-765.322291
-780.673213
-795.777768
-810.466475
-824.473994
-837.396404
-848.632997
-857.327522
-862.258561
-861.948695
-854.028592
-838.342915
-806.353187
-792.932081
-714.479937
-1538.526977
-1261.381858
-1064.726257
-846.623039
-634.705379
-422.732734
-210.899937
0.824213
212.648372
424.890642
638.054908
849.258450
1077.952114
1289.847565
1346.947278
1225.431410
1050.578441
920.896587
751.170335
569.445010
382.579527
192.432963
1.062619
-190.157412
-379.771554
-566.091338
-744.461171
-911.807108
-1059.120779
-1019.153684
875.781877
890.688070
790.755348
659.542430
506.722672
342.909133
173.312209
1.203247
-170.786163
-339.900975
-502.916546
-654.759006
-779.961287
-877.411393
-949.871388
808.557329
777.476800
700.059537
587.189801
454.251424
308.887664
156.583745
1.193873
-154.116918
-306.173494
-450.813474
-584.029068
-697.833216
-767.042274
-800.728467
783.595502
723.135289
639.724031
534.856633
413.630176
281.536648
142.849896
1.095146
-140.598818
-279.225964
-411.220948
-531.731785
-638.922401
-726.984152
-789.161169
773.739738
693.178202
602.123511
498.483544
383.739162
260.630391
132.110220
0.950522
-130.199218
-258.690425
-382.044996
-497.059906
-600.565320
-692.547431
-774.446876
767.489931
674.846243
577.635796
473.449976
362.196957
245.103481
123.974392
0.803732
-122.398357
-243.575671
-360.776263
-472.477293
-577.317196
-675.160809
-768.208994
760.958207
661.636209
560.528421
455.696026
346.584911
233.635514
117.883315
0.664168
-116.580702
-232.429761
-345.524421
-454.835162
-559.982437
-661.502097
-761.079675
753.058859
650.475899
547.386096
442.392605
334.907469
225.015599
113.279962
0.546254
-112.207937
-224.016692
-334.050475
-441.735832
-546.952233
-650.284703
-753.001848
743.668165
639.958475
536.284157
431.698734
325.717271
218.285406
109.693313
0.455525
-108.803860
-217.457128
-324.987404
-431.105870
-535.847676
-639.688623
-743.489530
733.004916
629.474023
526.170110
422.476853
318.035901
212.753987
106.769632
0.384635
-106.016792
-212.050099
-317.409823
-421.951640
-525.755035
-629.176267
-732.777248
721.365324
618.796225
516.487335
414.049816
311.235089
207.952829
104.261470
0.330015
-103.613720
-207.341431
-310.681414
-413.570850
-516.090050
-618.486771
-721.115542
709.022210
607.873928
506.955385
406.028253
304.927535
203.579729
102.003452
0.288688
-101.435603
-203.039674
-304.431020
-405.587847
-506.577158
-607.563836
-708.764576
696.194232
596.728474
497.443262
398.196696
298.883048
199.447604
99.890689
0.257046
-99.383790
-198.961777
-298.430417
-397.787080
-497.082181
-596.421503
-695.933372
683.043748
585.404584
487.897776
390.441456
292.969937
195.444741
97.859105
0.232879
-97.398869
-195.000691
-292.551491
-390.056434
-487.551180
-585.101370
-682.780346
669.685278
573.948420
478.303970
382.706392
287.116067
191.507018
95.870822
0.214420
-95.446252
-191.094988
-286.723975
-382.340516
-477.968700
-573.647930
-669.418344
656.196472
562.399145
468.663922
374.966604
281.284017
187.599187
93.904373
0.200344
-93.507007
-187.211594
-280.912034
-374.615256
-468.336918
-562.099834
-655.924722
642.628263
550.786878
458.985907
367.213268
275.455850
183.702873
91.948074
0.189671
-91.571326
-183.333760
-275.098968
-366.872600
-458.664477
-550.487248
-642.350690
629.013066
539.133379
449.279243
359.445179
269.624056
179.809198
89.995897
0.181640
-89.634637
-179.453893
-269.278302
-359.112088
-448.961197
-538.832246
-628.729136
615.370921
527.453671
439.552143
351.664270
263.786358
175.914374
88.044946
0.175665
-87.695184
-175.569229
-263.448618
-351.336327
-439.235809
-527.150240
-615.080562
601.713859
515.757750
429.811063
343.873363
257.942861
172.017177
86.093982
0.171281
-85.752627
-171.679372
-257.610738
-343.548726
-429.495244
-515.451589
-601.417367
588.048882
504.052062
420.060741
336.075169
252.094565
168.117558
84.142584
0.168120
-83.807264
-167.784935
-251.766247
-335.752485
-419.744635
-503.743031
-587.746799
574.379922
492.340639
410.304482
328.271910
246.242646
164.215917
82.190700
0.165888
-81.859613
-163.886851
-245.916790
-327.950222
-409.987601
-492.028817
-574.072926
560.709099
480.625938
400.544506
320.465260
240.388152
160.312756
80.238413
0.164356
-79.910212
-159.986042
-240.063789
-320.143918
-400.226595
-480.311539
-560.397920
547.037497
468.909411
390.782257
312.656408
234.531907
156.408523
78.285840
0.163339
-77.959531
-156.083289
-234.208357
-312.334996
-390.463224
-468.592730
-546.722850
533.365632
457.191893
381.018644
304.846163
228.674513
152.503572
76.333080
0.162697
-76.007948
-152.179197
-228.351315
-304.524434
-380.698506
-456.873254
-533.048179
519.693722
445.473847
371.254228
297.035055
222.816386
148.598157
74.380208
0.162320
-74.055749
-148.274216
-222.493240
-296.712881
-370.933069
-445.153578
-519.374048
506.021841
433.755525
361.489345
289.223423
216.957803
144.692452
72.427273
0.162126
-72.103140
-144.368661
-216.634527
-288.900757
-361.167281
-433.433928
-505.700447
492.349998
422.037056
351.724189
281.411474
211.098940
140.786569
70.474302
0.162054
-70.150270
-140.462750
-210.775434
-281.088322
-351.401354
-421.714402
-492.027300
478.678182
410.318505
341.958875
273.599336
205.239907
136.880578
68.521312
0.162059
-68.197238
-136.556626
-204.916128
-273.275734
-341.635398
-409.995029
-478.354517
465.006377
398.599904
332.193464
265.787083
199.380770
132.974519
66.568309
0.162110
-66.244112
-132.650382
-199.056710
-265.463084
-331.869467
-398.275800
-464.682010
451.334569
386.881268
322.427994
257.974758
193.521568
129.068418
64.615296
0.162184
-64.290936
-128.744077
-193.197242
-257.650420
-322.103584
-386.556695
-451.009708
437.662751
375.162606
312.662483
250.162388
187.662323
125.162287
62.662272
0.162267
-62.337736
-124.837745
-187.337758
-249.837767
-312.337753
-374.837690
-437.337552
423.990920
363.443923
302.896943
242.349985
181.803050
121.256135
60.709237
0.162350
-60.384530
-120.931406
-181.478277
-242.025136
-302.571969
-363.118761
-423.665498
410.319074
351.725221
293.131382
234.537560
175.943755
117.349966
58.756191
0.162427
-58.431327
-117.025073
-175.618809
-234.212529
-292.806226
-351.399890
-409.993514
396.647216
340.006505
283.365804
226.725117
170.084443
113.443782
56.803134
0.162496
-56.478132
-113.118749
-169.759355
-226.399945
-283.040516
-339.681061
-396.321577
382.975349
328.287777
273.600214
218.912660
164.225118
109.537587
54.850065
0.162554
-54.524947
-109.212437
-163.899916
-218.587382
-273.274830
-327.962260
-382.649671
369.303473
316.569040
263.834613
211.100193
158.365782
105.631380
52.896987
0.162603
-52.571772
-105.306137
-158.040491
-210.774834
-263.509164
-316.243481
-368.977784
355.631593
304.850296
254.069004
203.287717
152.506438
101.725165
50.943900
0.162643
-50.618606
-101.399847
-152.181078
-202.962300
-253.743512
-304.524714
-355.305908
341.959710
293.131548
244.303389
195.475235
146.647086
97.818942
48.990805
0.162674
-48.665449
-97.493566
-146.321675
-195.149776
-243.977870
-292.805957
-341.634039
328.287825
281.412797
234.537771
187.662747
140.787728
93.912713
47.037703
0.162699
-46.712299
-93.587292
-140.462279
-187.337259
-234.212235
-281.087205
-327.962173
314.615940
269.694044
224.772149
179.850256
134.928365
90.006479
45.084596
0.162718
-44.759156
-89.681024
-134.602889
-179.524748
-224.446604
-269.368457
-314.290308
300.944055
257.975290
215.006525
172.037761
129.068999
86.100240
43.131485
0.162732
-42.806017
-85.774762
-128.743503
-171.712241
-214.680977
-257.649710
-300.618443
287.272171
246.256536
205.240900
164.225264
123.209631
82.193999
41.178369
0.162743
-40.852881
-81.868502
-122.884121
-163.899737
-204.915351
-245.930964
-286.946577
273.600289
234.537781
195.475274
156.412766
117.350260
78.287755
39.225252
0.162750
-38.899749
-77.962246
-117.024741
-156.087234
-195.149727
-234.212218
-273.274710
259.928407
222.819028
185.709647
148.600267
111.490888
74.381509
37.272132
0.162756
-36.946618
-74.055991
-111.165363
-148.274733
-185.384103
-222.493472
-259.602842
246.256527
211.100274
175.944021
140.787768
105.631515
70.475262
35.319010
0.162760
-34.993490
-70.149738
-105.305985
-140.462232
-175.618479
-210.774725
-245.930973
232.584648
199.381522
166.178395
132.975268
99.772141
66.569014
33.365888
0.162763
-33.040362
-66.243486
-99.446609
-132.649732
-165.852855
-199.055978
-232.259102
218.912770
187.662770
156.412769
125.162768
93.912767
62.662766
31.412765
0.162765
-31.087235
-62.337234
-93.587233
-124.837232
-156.087231
-187.337230
-218.587230
205.240893
175.944019
146.647144
117.350268
88.053393
58.756517
29.459641
0.162766
-29.134108
-58.430983
-87.727857
-117.024731
-146.321606
-175.618481
-204.915357
191.569017
164.225268
136.881519
109.537769
82.194018
54.850268
27.506517
0.162767
-27.180982
-54.524732
-81.868481
-109.212231
-136.555981
-163.899731
-191.243483
177.897142
152.506519
127.115894
101.725269
76.334644
50.944019
25.553393
0.162768
-25.227857
-50.618481
-76.009105
-101.399730
-126.790355
-152.180980
-177.571607
164.225269
140.787770
117.350271
93.912771
70.475270
47.037769
23.600269
0.162769
-23.274731
-46.712230
-70.149729
-93.587228
-117.024728
-140.462228
-163.899730
150.553397
129.069023
107.584648
86.100272
64.615896
43.131520
21.647144
0.162769
-21.321606
-42.805980
-64.290353
-85.774726
-107.259100
-128.743475
-150.227851
136.881526
117.350277
97.819026
78.287774
58.756522
39.225270
19.694018
0.162768
-19.368482
-38.899730
-58.430977
-77.962224
-97.493471
-117.024719
-136.555970
123.209657
105.631531
88.053404
70.475275
52.897147
35.319019
17.740892
0.162766
-17.415358
-34.993481
-52.571602
-70.149722
-87.727841
-105.305962
-122.884086
109.537792
93.912791
78.287787
62.662782
47.037774
31.412767
15.787764
0.162763
-15.462237
-31.087234
-46.712228
-62.337220
-77.962210
-93.587201
-109.212196
95.865922
82.194041
68.522155
54.850273
41.178397
27.506517
13.834634
0.162756
-13.509117
-27.180989
-40.852856
-54.524719
-68.196578
-81.868436
-95.540300
82.194095
70.475351
58.756591
47.037799
35.319009
23.600256
11.881504
0.162747
-11.556002
-23.274748
-34.993489
-46.712224
-58.430948
-70.149668
-81.868384
68.522109
58.756432
48.990815
39.225293
29.459666
19.693987
9.928365
0.162738
-9.602890
-19.368511
-29.134130
-38.899737
-48.665331
-58.430886
-68.196473
54.850888
47.038464
39.225518
31.412628
23.600257
15.787747
7.975216
0.162725
-7.649780
-15.462279
-23.274777
-31.087276
-38.899724
-46.712169
-54.524385
41.176584
35.317439
29.460029
23.600442
17.740719
11.881500
6.022068
0.162708
-5.696671
-11.556047
-17.415431
-23.274812
-29.134286
-34.993285
-40.852814
27.516008
23.602338
19.692241
15.788292
11.881259
7.975213
4.068925
0.162691
-3.743560
-7.649812
-11.556069
-15.462368
-19.368602
-23.276238
-27.178115
13.810360
11.890500
9.925941
7.975551
6.021867
4.068919
2.115784
0.162678
-1.790445
-3.743568
-5.696705
-7.649793
-9.603134
-11.555209
-13.525039
