# vtk DataFile Version 2.0
cantilever_quad4_mix
ASCII
DATASET POLYDATA
POINTS 1105 float
0.000000 -6.000000 0.000000
48.000000 -6.000000 0.000000
48.000000 6.000000 0.000000
0.000000 6.000000 0.000000
0.750000 -6.000000 0.000000
1.500000 -6.000000 0.000000
2.250000 -6.000000 0.000000
3.000000 -6.000000 0.000000
3.750000 -6.000000 0.000000
4.500000 -6.000000 0.000000
5.250000 -6.000000 0.000000
6.000000 -6.000000 0.000000
6.750000 -6.000000 0.000000
7.500000 -6.000000 0.000000
8.250000 -6.000000 0.000000
9.000000 -6.000000 0.000000
9.750000 -6.000000 0.000000
10.500000 -6.000000 0.000000
11.250000 -6.000000 0.000000
12.000000 -6.000000 0.000000
12.750000 -6.000000 0.000000
13.500000 -6.000000 0.000000
14.250000 -6.000000 0.000000
15.000000 -6.000000 0.000000
15.750000 -6.000000 0.000000
16.500000 -6.000000 0.000000
17.250000 -6.000000 0.000000
18.000000 -6.000000 0.000000
18.750000 -6.000000 0.000000
19.500000 -6.000000 0.000000
20.250000 -6.000000 0.000000
21.000000 -6.000000 0.000000
21.750000 -6.000000 0.000000
22.500000 -6.000000 0.000000
23.250000 -6.000000 0.000000
24.000000 -6.000000 0.000000
24.750000 -6.000000 0.000000
25.500000 -6.000000 0.000000
26.250000 -6.000000 0.000000
27.000000 -6.000000 0.000000
27.750000 -6.000000 0.000000
28.500000 -6.000000 0.000000
29.250000 -6.000000 0.000000
30.000000 -6.000000 0.000000
30.750000 -6.000000 0.000000
31.500000 -6.000000 0.000000
32.250000 -6.000000 0.000000
33.000000 -6.000000 0.000000
33.750000 -6.000000 0.000000
34.500000 -6.000000 0.000000
35.250000 -6.000000 0.000000
36.000000 -6.000000 0.000000
36.750000 -6.000000 0.000000
37.500000 -6.000000 0.000000
38.250000 -6.000000 0.000000
39.000000 -6.000000 0.000000
39.750000 -6.000000 0.000000
40.500000 -6.000000 0.000000
41.250000 -6.000000 0.000000
42.000000 -6.000000 0.000000
42.750000 -6.000000 0.000000
43.500000 -6.000000 0.000000
44.250000 -6.000000 0.000000
45.000000 -6.000000 0.000000
45.750000 -6.000000 0.000000
46.500000 -6.000000 0.000000
47.250000 -6.000000 0.000000
48.000000 -5.250000 0.000000
48.000000 -4.500000 0.000000
48.000000 -3.750000 0.000000
48.000000 -3.000000 0.000000
48.000000 -2.250000 0.000000
48.000000 -1.500000 0.000000
48.000000 -0.750000 0.000000
48.000000 -0.000000 0.000000
48.000000 0.750000 0.000000
48.000000 1.500000 0.000000
48.000000 2.250000 0.000000
48.000000 3.000000 0.000000
48.000000 3.750000 0.000000
48.000000 4.500000 0.000000
48.000000 5.250000 0.000000
47.250000 6.000000 0.000000
46.500000 6.000000 0.000000
45.750000 6.000000 0.000000
45.000000 6.000000 0.000000
44.250000 6.000000 0.000000
43.500000 6.000000 0.000000
42.750000 6.000000 0.000000
42.000000 6.000000 0.000000
41.250000 6.000000 0.000000
40.500000 6.000000 0.000000
39.750000 6.000000 0.000000
39.000000 6.000000 0.000000
38.250000 6.000000 0.000000
37.500000 6.000000 0.000000
36.750000 6.000000 0.000000
36.000000 6.000000 0.000000
35.250000 6.000000 0.000000
34.500000 6.000000 0.000000
33.750000 6.000000 0.000000
33.000000 6.000000 0.000000
32.250000 6.000000 0.000000
31.500000 6.000000 0.000000
30.750000 6.000000 0.000000
30.000000 6.000000 0.000000
29.250000 6.000000 0.000000
28.500000 6.000000 0.000000
27.750000 6.000000 0.000000
27.000000 6.000000 0.000000
26.250000 6.000000 0.000000
25.500000 6.000000 0.000000
24.750000 6.000000 0.000000
24.000000 6.000000 0.000000
23.250000 6.000000 0.000000
22.500000 6.000000 0.000000
21.750000 6.000000 0.000000
21.000000 6.000000 0.000000
20.250000 6.000000 0.000000
19.500000 6.000000 0.000000
18.750000 6.000000 0.000000
18.000000 6.000000 0.000000
17.250000 6.000000 0.000000
16.500000 6.000000 0.000000
15.750000 6.000000 0.000000
15.000000 6.000000 0.000000
14.250000 6.000000 0.000000
13.500000 6.000000 0.000000
12.750000 6.000000 0.000000
12.000000 6.000000 0.000000
11.250000 6.000000 0.000000
10.500000 6.000000 0.000000
9.750000 6.000000 0.000000
9.000000 6.000000 0.000000
8.250000 6.000000 0.000000
7.500000 6.000000 0.000000
6.750000 6.000000 0.000000
6.000000 6.000000 0.000000
5.250000 6.000000 0.000000
4.500000 6.000000 0.000000
3.750000 6.000000 0.000000
3.000000 6.000000 0.000000
2.250000 6.000000 0.000000
1.500000 6.000000 0.000000
0.750000 6.000000 0.000000
0.000000 5.250000 0.000000
0.000000 4.500000 0.000000
0.000000 3.750000 0.000000
0.000000 3.000000 0.000000
0.000000 2.250000 0.000000
0.000000 1.500000 0.000000
0.000000 0.750000 0.000000
0.000000 0.000000 0.000000
0.000000 -0.750000 0.000000
0.000000 -1.500000 0.000000
0.000000 -2.250000 0.000000
0.000000 -3.000000 0.000000
0.000000 -3.750000 0.000000
0.000000 -4.500000 0.000000
0.000000 -5.250000 0.000000
42.951075 -4.469141 0.000000
15.015271 2.399392 0.000000
34.027304 -2.589998 0.000000
18.230137 -2.380728 0.000000
43.405247 -2.933387 0.000000
12.815036 2.794699 0.000000
33.372476 0.528035 0.000000
9.927063 -4.484345 0.000000
15.055939 0.627706 0.000000
6.386710 4.015624 0.000000
36.910365 3.034095 0.000000
38.800718 -2.875329 0.000000
15.826978 5.313757 0.000000
28.981665 0.138766 0.000000
30.089866 2.232372 0.000000
0.768787 3.713590 0.000000
27.849011 2.910885 0.000000
31.867169 5.197391 0.000000
23.628319 -4.439883 0.000000
19.587307 -1.296439 0.000000
33.930890 -1.545342 0.000000
45.715522 0.257192 0.000000
27.016140 5.193211 0.000000
5.718712 2.186473 0.000000
7.278624 2.746190 0.000000
21.490477 -0.383396 0.000000
14.816675 -4.460855 0.000000
44.932904 2.057932 0.000000
19.273422 -2.281946 0.000000
16.249651 1.672892 0.000000
21.279495 -3.713677 0.000000
46.487995 -5.219821 0.000000
41.071955 1.553407 0.000000
35.363571 -3.105667 0.000000
9.811717 1.240373 0.000000
2.345505 2.179390 0.000000
5.379633 2.821030 0.000000
33.812095 2.948551 0.000000
33.766004 -5.229996 0.000000
2.695208 -0.363947 0.000000
47.239784 0.097095 0.000000
15.805268 -3.089092 0.000000
38.883548 -1.348025 0.000000
9.634014 4.458439 0.000000
28.286789 -3.697211 0.000000
34.541061 -1.860945 0.000000
5.635060 -0.458056 0.000000
30.655336 -4.472111 0.000000
41.881276 -1.404504 0.000000
13.407153 -0.310764 0.000000
19.968718 -2.326811 0.000000
21.662604 2.091780 0.000000
32.993944 -5.249345 0.000000
21.983629 -1.208098 0.000000
5.528928 3.899076 0.000000
11.488222 -3.704681 0.000000
25.524933 -0.320093 0.000000
41.441125 5.222623 0.000000
18.033644 -5.292927 0.000000
25.785068 4.035283 0.000000
30.554832 -2.956826 0.000000
2.290008 -2.246076 0.000000
32.394525 -2.082785 0.000000
25.966911 -3.775650 0.000000
46.488997 3.350759 0.000000
8.474834 -3.092670 0.000000
6.687112 -5.254311 0.000000
37.469443 -0.722317 0.000000
2.937147 5.272053 0.000000
42.032538 -4.466576 0.000000
32.967672 -0.311297 0.000000
10.708216 -2.271721 0.000000
20.545732 0.384084 0.000000
45.579580 -4.432435 0.000000
19.517650 -4.605721 0.000000
46.471691 -2.037789 0.000000
22.774683 -0.574189 0.000000
13.399119 -5.244516 0.000000
35.826223 -0.889585 0.000000
18.427282 -2.669742 0.000000
13.079319 1.620361 0.000000
18.567548 -3.426235 0.000000
16.481717 3.376015 0.000000
10.782465 -0.630102 0.000000
4.655153 -3.686770 0.000000
13.007605 -3.707158 0.000000
3.079129 -1.483589 0.000000
35.203371 5.235674 0.000000
38.705875 -3.645091 0.000000
46.467559 -1.193622 0.000000
4.090448 -5.226106 0.000000
6.236188 -2.534798 0.000000
41.871001 0.854800 0.000000
31.375006 -0.158172 0.000000
38.330289 -5.189982 0.000000
27.796989 4.553504 0.000000
21.745493 -5.241380 0.000000
11.211920 4.272704 0.000000
18.088687 0.290479 0.000000
5.072226 0.384967 0.000000
38.368137 4.472498 0.000000
12.759995 4.479820 0.000000
32.702254 0.423349 0.000000
22.584934 -5.239686 0.000000
9.113618 -5.242968 0.000000
41.076533 0.854168 0.000000
16.148145 0.568227 0.000000
13.026669 -4.510863 0.000000
11.731330 4.730519 0.000000
33.762356 -4.473444 0.000000
41.358743 3.763940 0.000000
28.561414 5.211318 0.000000
30.320975 -0.843841 0.000000
28.196116 -2.138534 0.000000
34.000863 1.382017 0.000000
13.695496 1.220416 0.000000
6.807723 4.465353 0.000000
24.426528 -0.375645 0.000000
39.298253 2.257634 0.000000
2.956481 4.426306 0.000000
26.179762 0.142096 0.000000
23.346307 -2.027945 0.000000
4.526596 -2.152410 0.000000
44.957630 -3.650225 0.000000
16.133000 -5.230823 0.000000
25.480090 3.373881 0.000000
5.935903 4.593426 0.000000
36.893290 3.715447 0.000000
1.533766 -2.280081 0.000000
31.876620 1.784556 0.000000
33.838951 -0.997046 0.000000
27.162844 3.263808 0.000000
28.367520 2.263020 0.000000
41.125560 -1.402723 0.000000
29.007442 -2.949841 0.000000
46.478275 0.557959 0.000000
18.684338 0.699332 0.000000
8.652569 2.124455 0.000000
5.365472 -3.702020 0.000000
9.932972 -5.227828 0.000000
14.000116 -1.719248 0.000000
9.977168 0.118111 0.000000
26.150613 3.000027 0.000000
18.030097 3.789360 0.000000
34.319773 -0.219604 0.000000
1.569775 -5.243497 0.000000
34.538782 -4.462805 0.000000
3.816676 -2.282059 0.000000
4.142275 2.607707 0.000000
20.001357 -1.602313 0.000000
14.047171 -4.765977 0.000000
25.413808 1.640933 0.000000
19.099258 -0.957966 0.000000
36.592222 -2.348153 0.000000
47.239024 3.663483 0.000000
27.777237 5.253661 0.000000
39.232643 2.883474 0.000000
30.610872 -3.720720 0.000000
39.608177 -2.154155 0.000000
16.923451 3.990471 0.000000
37.539972 -5.281226 0.000000
20.478012 -4.479609 0.000000
17.546032 -0.157411 0.000000
15.124493 4.047799 0.000000
39.149078 4.554413 0.000000
12.522792 1.128394 0.000000
0.770321 -4.425069 0.000000
47.228487 4.463999 0.000000
2.313429 -2.999018 0.000000
4.208901 -1.199661 0.000000
12.276908 -2.170823 0.000000
19.565316 -3.387222 0.000000
25.179979 -4.612084 0.000000
18.004882 5.235067 0.000000
29.835490 -3.716908 0.000000
36.299666 2.283957 0.000000
27.984972 1.554668 0.000000
13.013038 0.647451 0.000000
18.774162 5.241766 0.000000
24.729464 1.991114 0.000000
45.709331 -0.537264 0.000000
10.770564 -5.227208 0.000000
33.209114 2.136317 0.000000
14.425709 -3.785220 0.000000
39.530200 0.761673 0.000000
16.539419 5.142982 0.000000
44.954423 4.448476 0.000000
42.309434 5.242735 0.000000
16.680118 2.327457 0.000000
28.548095 0.960778 0.000000
[...]
POINT_DATA 1105
SCALARS P float 1
LOOKUP_TABLE default
1439.583992
-7.720900
8.449513
-1487.212260
1100.279768
1032.896134
763.911602
914.107774
1001.684036
1056.102678
986.667146
917.024755
831.943946
624.883171
449.976069
494.883392
583.272692
625.673336
628.033943
619.542198
593.079116
601.303419
600.529024
531.310824
350.196708
46.489221
-74.759690
-143.193296
-131.882211
-92.475277
51.675949
285.464566
486.973090
524.242753
497.666297
515.942678
436.814107
259.275968
78.435519
32.933274
173.298959
338.773555
384.409210
366.709331
334.017554
291.035901
63.542555
-33.735029
-93.412472
1.702165
23.497798
102.741689
52.620526
8.896493
101.304973
159.977236
175.033922
145.458383
129.440422
107.685549
90.630886
79.613548
68.785701
50.902312
37.231231
22.892092
11.656343
4.526987
-3.419765
-0.789335
0.317713
1.863211
-4.927333
-2.321298
10.947596
-1.747252
-15.175792
-19.169713
-1.907770
10.308666
5.176045
-4.534122
-31.663531
-33.727986
-64.354903
-67.352475
-69.361100
-179.345413
-531.210195
-766.728587
-913.917070
-935.222836
-871.961845
-907.763530
-619.298336
-532.077856
-488.010893
-550.197151
-540.701561
-505.700343
-553.515038
-447.190179
-353.589018
-390.343296
-449.473475
-465.301866
-467.787653
-430.259308
-532.469055
-471.415216
-539.216179
-500.618884
-525.326762
-544.970275
-551.477396
-548.811682
-553.168984
-573.404550
-593.657088
-599.670615
-656.847415
-693.394210
-848.932961
-696.377738
-827.472523
-855.147650
-1098.664958
-1154.513779
-1127.285159
-920.360015
-1070.261009
-1213.229296
-977.453860
-956.045532
-886.705621
-917.189881
-925.987726
-1125.523727
-1058.360339
-984.081308
-1044.078667
-978.283685
-952.007630
-1151.712542
-1594.033468
328.138311
-1514.771429
-92.262758
17.527690
-1268.285884
1604.124631
1515.895207
850.741582
330.498091
437.942450
365.401497
733.050534
484.078322
1128.062690
579.511990
67.132786
-321.828423
361.973199
845.296338
47.825133
-184.867446
230.701513
409.129035
-5.858824
-433.671724
-673.935890
60.576818
-432.629892
-20.408936
-122.295609
609.815999
-299.226169
-269.304826
361.071789
341.543149
186.248056
-5.541921
-348.561623
-175.167594
-264.051198
-36.256944
284.077781
-49.533452
810.415148
-272.502020
341.208601
36.376722
20.573542
-132.580632
-315.573836
518.464045
-540.380132
-253.333920
657.901906
3372.647494
-10.931797
-273.776090
77.739829
-773.045544
273.848734
-97.891515
-25.099868
228.585418
20.276347
155.399715
589.335658
-280.087508
642.102853
160.024990
-429.647322
661.032897
-51.709650
714.094448
1446.973095
-286.761028
63.043602
166.984270
-299.109530
652.259152
-24.169400
136.131280
800.007892
188.506945
-755.352336
75.678204
56.672546
515.818234
20.438445
31.224941
-261.819253
14.717728
-13.477589
768.103025
203.703728
-114.782214
-61.433535
365.848702
-328.453870
201.407143
547.995256
495.734326
910.279535
6.574567
136.040106
1.864287
656.546945
376.286159
26.525658
-68.942544
249.683239
-410.843845
518.400788
-659.197193
-106.684698
52.613351
-660.092611
-910.252445
-58.132099
465.104594
997.128170
-10.171492
-281.138535
440.503805
-836.942551
-233.622608
1128.399620
-328.627591
355.242507
181.795212
-266.260567
-200.391906
-848.757279
3.200162
55.317202
-238.941515
1.049406
197.830298
841.485765
51.167876
1127.138263
-326.752369
-902.084934
367.529310
545.073260
-55.427880
33.250489
-232.666508
-45.527909
-11.055138
200.093436
8.516663
-11.755990
-205.389312
262.332634
885.142684
196.487044
-278.529646
-186.647543
-103.402585
272.435785
919.112663
-32.696144
-154.666443
-360.159282
-266.344714
451.554892
-102.589709
163.993227
206.589051
-13.650092
-263.129341
-191.302358
290.690034
48.510744
-327.235113
378.197369
75.378986
34.753893
-273.655850
-652.877531
-191.629757
732.855952
-21.941398
453.745529
165.057911
406.306826
427.265285
120.948737
-467.296127
244.442015
334.429731
-198.618708
-166.700520
-473.331709
-208.454992
15.209953
830.098023
-114.133264
650.239386
117.528564
-574.996323
-9.613516
563.527203
-189.409831
-20.076279
-11.532710
8.544570
295.876180
32.195597
259.091466
314.803260
119.671529
-172.404759
-318.167238
-34.688401
31.947262
-48.527218
-195.557316
618.793547
-173.315061
-27.719221
649.688897
1030.982239
-151.904575
185.319923
607.774386
-97.688393
265.879617
185.055887
-54.659096
-429.809831
-87.231302
-333.352835
-63.348461
144.259583
-622.402331
-1335.913123
174.887466
-54.537962
-119.250274
329.581929
-493.800692
219.830540
-466.871734
-157.353711
80.885271
248.696180
215.026798
11.653662
160.179537
-157.142449
-426.522656
-529.580526
-389.593196
-502.894155
-292.592678
-115.754847
79.279366
197.259157
252.317127
-642.819832
-263.163600
545.165364
-125.958084
723.704553
214.505183
419.199396
5.467129
140.114615
-1935.056451
117.980505
664.010675
359.201174
-316.580579
394.531616
118.001117
488.994615
827.750217
343.538802
247.558015
-196.381504
-9.889395
-71.569776
73.115899
138.568551
-1021.672038
-79.906998
3.298291
12.488047
49.632896
341.312777
-486.217621
-107.121375
54.535473
-74.632580
1033.538406
-402.213904
-674.132632
-406.786500
49.837427
-219.725502
1166.192678
19.103589
567.263876
204.494363
-637.409724
-214.041343
-171.639378
-246.945747
-717.601178
69.119902
275.122623
174.499872
805.589876
-101.692785
108.074741
-7.259085
350.194501
209.272535
16.908728
-690.736977
-179.750756
-641.444602
-1.161666
809.981052
-327.123417
239.647679
-148.234449
-210.401197
344.534566
122.115518
992.575369
-259.816270
14.393943
689.906209
-295.020767
-377.987907
553.929515
-367.588253
359.349604
-504.212899
5.220297
828.725189
-483.987478
136.290987
-499.007226
-251.626854
427.191554
496.333129
-170.656346
-128.499977
465.896417
112.618835
375.396109
-422.764893
-269.251989
85.149040
530.091575
125.800432
-77.225828
495.405439
-302.151214
128.814911
653.657973
-69.515152
-1141.926651
184.123900
44.821589
-966.012545
-81.886139
-528.406587
65.388803
-49.757878
1.017958
147.451298
-423.201284
122.992137
571.575840
-423.457089
-231.036404
21.979396
18.518170
738.937989
504.410696
-210.379990
381.097079
-48.054723
-312.480997
-181.511211
361.064770
-176.177848
249.301050
525.943660
141.952809
664.307259
419.687543
402.256606
-475.362715
-168.885189
-746.788786
172.057181
170.648504
-445.866270
-40.189899
-227.325086
412.755071
17.801489
96.284288
-320.824695
-64.653042
813.066605
292.316993
456.108141
-272.511609
-672.435839
643.875811
0.829901
140.658077
-284.720296
537.039595
-185.122415
6.634284
-97.720466
34.571875
-245.908822
-611.507924
283.059160
-64.008568
519.785482
-626.843786
-344.687002
29.924825
-270.971349
-191.369788
32.062435
454.042964
591.103792
141.959547
324.526737
-73.815407
7.634864
1812.875255
341.652683
-80.186194
379.939540
-338.839153
-89.812344
407.990243
-407.064897
23.725038
-697.276481
-18.609374
155.996789
-414.047654
116.042576
-236.147488
-41.930432
-106.245863
184.370742
-106.981160
889.171338
-341.848358
-182.831096
85.795175
-33.888332
100.620606
1327.850461
320.769543
-612.838259
-397.325480
256.097281
711.487075
-106.425290
70.574871
-1738.170834
732.864042
-178.540153
-147.372157
-132.455861
-319.050638
-282.155333
202.527878
114.282979
174.323768
-1260.768749
-341.890564
86.298215
-336.416784
222.541431
131.378292
66.749159
-16.991734
-45.305227
34.848216
771.385733
-84.711143
203.598057
213.256773
-265.510997
140.101246
-0.373564
116.308561
-108.038437
162.637425
621.335888
974.329752
172.314731
-7.547713
119.743647
-286.982941
-801.915415
448.485390
-181.817584
-53.277171
-31.566421
12.281607
628.812349
-359.842031
-342.052423
801.129509
-290.872984
-5344.924286
-2425.232852
239.395280
-438.614240
98.084906
1.911402
-587.299623
-24.307541
604.142336
37.448848
-362.307452
190.852478
-27.072025
-233.428705
-237.994756
-562.718770
14.363308
0.999509
19.431437
-29.565150
-24.650247
178.104852
-773.005597
-25.188974
1.193541
-129.817939
-95.405314
-82.632095
-308.966126
-459.865303
186.752853
13.473462
72.450739
-93.258277
559.865903
-69.104656
25.011439
-71.875898
-105.785582
283.530996
-34.892892
437.706343
109.080485
-89.301948
384.526598
-442.444158
113.717498
4.468830
-1233.741689
-375.782411
89.176649
105.723510
-170.727898
-446.317127
68.274223
87.454887
152.394858
-107.284835
-282.874909
130.245987
519.667507
5.797713
-50.767969
-441.363672
82.710467
-135.553395
-536.931124
-291.887209
10.544294
-451.991609
462.619422
-684.829647
-232.691163
-84.040259
-709.638821
-225.307499
-393.763604
1.973864
-209.514257
-322.338872
-347.312470
260.898445
-25.316389
-973.148146
766.287228
-24.022392
684.029722
-749.662012
274.288978
65.680586
46.965078
648.162085
-2205.081152
-369.766433
116.507814
-282.143479
-168.551864
-571.962733
-423.708352
-299.566293
-118.455583
-136.059708
749.451093
41.641057
673.885956
149.960900
700.567946
-967.538412
167.658540
271.770198
-178.227436
157.920848
-382.884780
432.470603
115.217699
336.604677
-474.382421
-327.673606
8.079149
-172.669937
-39.063455
685.930967
-624.304719
-125.600152
-203.555073
59.462029
-979.427585
219.481452
326.128235
1040.299670
30.254572
-243.776188
145.363141
8.365038
46.943401
22.877248
58.743587
-182.944015
6.273822
93.702692
-14.824995
230.573822
-223.910236
-2.643846
-41.119710
-561.741247
333.765424
766.419351
706.588678
-1283.679583
-116.776850
64.173356
-69.418797
-476.450970
-956.151828
-465.548252
49.210753
-202.343728
208.742751
103.230232
-58.107076
-95.085298
627.760723
839.323530
-20.241773
-16.533748
-651.751663
-100.000663
-99.215128
2.849737
-20.964942
-23.520669
-183.789481
134.257162
-368.364422
-122.971680
-936.152802
348.234369
343.470988
-486.746469
-468.696483
-242.466679
-85.807823
-85.599116
0.283036
-826.516013
118.886828
319.131093
52.651540
176.214561
66.688954
212.390369
34.387302
407.170014
723.878261
-66.819795
218.019522
-123.551450
-6.277707
-428.135686
766.411251
192.385867
-103.827065
45.088284
175.975913
-243.811869
69.455155
-14.045488
-244.569626
-468.746688
-730.818234
694.636413
386.001784
39.736613
415.266953
78.837823
-172.805031
280.169001
45.652926
-75.512359
382.401277
-435.618571
-238.329133
108.794779
1114.497575
189.963897
36.902543
-35.463548
-38.547462
251.221846
62.921001
-143.449650
72.471760
3.667107
-91.255506
-521.573213
2791.233292
615.490153
648.343314
-19.127270
-380.638042
291.160542
-121.483007
1410.560154
33.157575
-106.312776
239.250643
-194.991077
402.676914
13.153077
161.092690
49.443639
62.102844
56.814837
289.816383
-490.184382
150.912460
-60.716687
-984.995960
-571.691521
-520.028593
-244.290768
108.278604
-89.843774
-136.477031
341.790207
-359.241714
440.260284
152.836073
241.834910
-294.360350
33.202430
20.051428
424.858215
273.376259
-84.021652
-723.183721
99.968339
-648.659231
-61.205311
-376.675927
915.302664
65.175769
872.893874
-62.988069
59.066131
-19.406953
-10.007272
371.023708
74.834284
-70.707546
-553.660956
-51.522285
149.340021
144.333757
-305.966987
-103.120843
175.239868
-525.038162
27.953080
-88.400705
-313.248739
103.557675
-5.756014
-1.618923
435.175536
516.027952
-116.089777
872.518378
76.065399
-365.331552
-403.206977
320.711576
-215.099229
72.652942
-370.522978
74.800074
6.635904
-293.472110
-521.819566
22.816080
-231.247249
11.575078
-774.587322
-145.459733
-64.773407
9.798088
72.039243
-18.273359
-702.705103
-199.518343
-136.479947
105.971546
-54.099770
556.708373
1315.682257
-195.479610
-1391.539271
-829.759995
-593.079926
-200.135585
272.595163
-685.931626
97.696872
1641.650093
805.514551
1106.417288
-842.785961
-71.343405
-343.153596
86.693121
-106.908179
347.823095
-1152.909301
-750.827863
21.319019
60.556328
215.430114
-37.648127
257.499595
46.324474
-71.098277
-19.506194
56.745916
-549.738398
584.735971
345.685966
206.094125
-27.579563
-283.536668
372.398610
718.695643
27.540209
13.592442
-386.161913
712.043441
-261.993105
100.962679
480.484464
148.189801
349.193641
56.449360
-942.465570
134.268970
294.643962
309.234043
636.704986
-255.995957
-184.944006
9.425466
15.647350
126.540958
190.288893
219.802753
-383.925690
-108.251383
302.299408
-233.762189
-2.211405
50.578469
168.876299
221.840944
-354.964425
1590.436479
-420.560225
-827.982020
53.450412
-242.166690
-1232.834867
-95.482778
-72.533330
116.116950
787.865711
-694.174965
-328.863106
-2196.964589
682.191918
-289.538861
-514.717372
116.719898
141.806787
404.430866
48.888506
-455.688411
-348.816618
-18.452123
154.744712
-551.952011
-255.162937
-1.579147
-124.837656
126.001340
330.859610
-65.426494
637.174259
-566.965646
-29.463839
47.356485
18.469566
