# vtk DataFile Version 2.0
cantilever_quad8_mix
ASCII
DATASET POLYDATA
POINTS 3000 float
0.000000 -6.000000 0.000000
48.000000 -6.000000 0.000000
48.000000 6.000000 0.000000
0.000000 6.000000 0.000000
0.444444 -6.000000 0.000000
0.888889 -6.000000 0.000000
1.333333 -6.000000 0.000000
1.777778 -6.000000 0.000000
2.222222 -6.000000 0.000000
2.666667 -6.000000 0.000000
3.111111 -6.000000 0.000000
3.555556 -6.000000 0.000000
4.000000 -6.000000 0.000000
4.444444 -6.000000 0.000000
4.888889 -6.000000 0.000000
5.333333 -6.000000 0.000000
5.777778 -6.000000 0.000000
6.222222 -6.000000 0.000000
6.666667 -6.000000 0.000000
7.111111 -6.000000 0.000000
7.555556 -6.000000 0.000000
8.000000 -6.000000 0.000000
8.444444 -6.000000 0.000000
8.888889 -6.000000 0.000000
9.333333 -6.000000 0.000000
9.777778 -6.000000 0.000000
10.222222 -6.000000 0.000000
10.666667 -6.000000 0.000000
11.111111 -6.000000 0.000000
11.555556 -6.000000 0.000000
12.000000 -6.000000 0.000000
12.444444 -6.000000 0.000000
12.888889 -6.000000 0.000000
13.333333 -6.000000 0.000000
13.777778 -6.000000 0.000000
14.222222 -6.000000 0.000000
14.666667 -6.000000 0.000000
15.111111 -6.000000 0.000000
15.555556 -6.000000 0.000000
16.000000 -6.000000 0.000000
16.444444 -6.000000 0.000000
16.888889 -6.000000 0.000000
17.333333 -6.000000 0.000000
17.777778 -6.000000 0.000000
18.222222 -6.000000 0.000000
18.666667 -6.000000 0.000000
19.111111 -6.000000 0.000000
19.555556 -6.000000 0.000000
20.000000 -6.000000 0.000000
20.444444 -6.000000 0.000000
20.888889 -6.000000 0.000000
21.333333 -6.000000 0.000000
21.777778 -6.000000 0.000000
22.222222 -6.000000 0.000000
22.666667 -6.000000 0.000000
23.111111 -6.000000 0.000000
23.555556 -6.000000 0.000000
24.000000 -6.000000 0.000000
24.444444 -6.000000 0.000000
24.888889 -6.000000 0.000000
25.333333 -6.000000 0.000000
25.777778 -6.000000 0.000000
26.222222 -6.000000 0.000000
26.666667 -6.000000 0.000000
27.111111 -6.000000 0.000000
27.555556 -6.000000 0.000000
28.000000 -6.000000 0.000000
28.444444 -6.000000 0.000000
28.888889 -6.000000 0.000000
29.333333 -6.000000 0.000000
29.777778 -6.000000 0.000000
30.222222 -6.000000 0.000000
30.666667 -6.000000 0.000000
31.111111 -6.000000 0.000000
31.555556 -6.000000 0.000000
32.000000 -6.000000 0.000000
32.444444 -6.000000 0.000000
32.888889 -6.000000 0.000000
33.333333 -6.000000 0.000000
33.777778 -6.000000 0.000000
34.222222 -6.000000 0.000000
34.666667 -6.000000 0.000000
35.111111 -6.000000 0.000000
35.555556 -6.000000 0.000000
36.000000 -6.000000 0.000000
36.444444 -6.000000 0.000000
36.888889 -6.000000 0.000000
37.333333 -6.000000 0.000000
37.777778 -6.000000 0.000000
38.222222 -6.000000 0.000000
38.666667 -6.000000 0.000000
39.111111 -6.000000 0.000000
39.555556 -6.000000 0.000000
40.000000 -6.000000 0.000000
40.444444 -6.000000 0.000000
40.888889 -6.000000 0.000000
41.333333 -6.000000 0.000000
41.777778 -6.000000 0.000000
42.222222 -6.000000 0.000000
42.666667 -6.000000 0.000000
43.111111 -6.000000 0.000000
43.555556 -6.000000 0.000000
44.000000 -6.000000 0.000000
44.444444 -6.000000 0.000000
44.888889 -6.000000 0.000000
45.333333 -6.000000 0.000000
45.777778 -6.000000 0.000000
46.222222 -6.000000 0.000000
46.666667 -6.000000 0.000000
47.111111 -6.000000 0.000000
47.555556 -6.000000 0.000000
48.000000 -5.555556 0.000000
48.000000 -5.111111 0.000000
48.000000 -4.666667 0.000000
48.000000 -4.222222 0.000000
48.000000 -3.777778 0.000000
48.000000 -3.333333 0.000000
48.000000 -2.888889 0.000000
48.000000 -2.444444 0.000000
48.000000 -2.000000 0.000000
48.000000 -1.555556 0.000000
48.000000 -1.111111 0.000000
48.000000 -0.666667 0.000000
48.000000 -0.222222 0.000000
48.000000 0.222222 0.000000
48.000000 0.666667 0.000000
48.000000 1.111111 0.000000
48.000000 1.555556 0.000000
48.000000 2.000000 0.000000
48.000000 2.444444 0.000000
48.000000 2.888889 0.000000
48.000000 3.333333 0.000000
48.000000 3.777778 0.000000
48.000000 4.222222 0.000000
48.000000 4.666667 0.000000
48.000000 5.111111 0.000000
48.000000 5.555556 0.000000
47.555556 6.000000 0.000000
47.111111 6.000000 0.000000
46.666667 6.000000 0.000000
46.222222 6.000000 0.000000
45.777778 6.000000 0.000000
45.333333 6.000000 0.000000
44.888889 6.000000 0.000000
44.444444 6.000000 0.000000
44.000000 6.000000 0.000000
43.555556 6.000000 0.000000
43.111111 6.000000 0.000000
42.666667 6.000000 0.000000
42.222222 6.000000 0.000000
41.777778 6.000000 0.000000
41.333333 6.000000 0.000000
40.888889 6.000000 0.000000
40.444444 6.000000 0.000000
40.000000 6.000000 0.000000
39.555556 6.000000 0.000000
39.111111 6.000000 0.000000
38.666667 6.000000 0.000000
38.222222 6.000000 0.000000
37.777778 6.000000 0.000000
37.333333 6.000000 0.000000
36.888889 6.000000 0.000000
36.444444 6.000000 0.000000
36.000000 6.000000 0.000000
35.555556 6.000000 0.000000
35.111111 6.000000 0.000000
34.666667 6.000000 0.000000
34.222222 6.000000 0.000000
33.777778 6.000000 0.000000
33.333333 6.000000 0.000000
32.888889 6.000000 0.000000
32.444444 6.000000 0.000000
32.000000 6.000000 0.000000
31.555556 6.000000 0.000000
31.111111 6.000000 0.000000
30.666667 6.000000 0.000000
30.222222 6.000000 0.000000
29.777778 6.000000 0.000000
29.333333 6.000000 0.000000
28.888889 6.000000 0.000000
28.444444 6.000000 0.000000
28.000000 6.000000 0.000000
27.555556 6.000000 0.000000
27.111111 6.000000 0.000000
26.666667 6.000000 0.000000
26.222222 6.000000 0.000000
25.777778 6.000000 0.000000
25.333333 6.000000 0.000000
24.888889 6.000000 0.000000
24.444444 6.000000 0.000000
24.000000 6.000000 0.000000
23.555556 6.000000 0.000000
23.111111 6.000000 0.000000
22.666667 6.000000 0.000000
22.222222 6.000000 0.000000
21.777778 6.000000 0.000000
21.333333 6.000000 0.000000
20.888889 6.000000 0.000000
20.444444 6.000000 0.000000
20.000000 6.000000 0.000000
19.555556 6.000000 0.000000
19.111111 6.000000 0.000000
18.666667 6.000000 0.000000
18.222222 6.000000 0.000000
17.777778 6.000000 0.000000
17.333333 6.000000 0.000000
16.888889 6.000000 0.000000
16.444444 6.000000 0.000000
16.000000 6.000000 0.000000
15.555556 6.000000 0.000000
15.111111 6.000000 0.000000
14.666667 6.000000 0.000000
14.222222 6.000000 0.000000
13.777778 6.000000 0.000000
13.333333 6.000000 0.000000
12.888889 6.000000 0.000000
12.444444 6.000000 0.000000
12.000000 6.000000 0.000000
11.555556 6.000000 0.000000
11.111111 6.000000 0.000000
10.666667 6.000000 0.000000
10.222222 6.000000 0.000000
9.777778 6.000000 0.000000
9.333333 6.000000 0.000000
8.888889 6.000000 0.000000
8.444444 6.000000 0.000000
8.000000 6.000000 0.000000
7.555556 6.000000 0.000000
7.111111 6.000000 0.000000
6.666667 6.000000 0.000000
6.222222 6.000000 0.000000
5.777778 6.000000 0.000000
5.333333 6.000000 0.000000
4.888889 6.000000 0.000000
4.444444 6.000000 0.000000
4.000000 6.000000 0.000000
3.555556 6.000000 0.000000
3.111111 6.000000 0.000000
2.666667 6.000000 0.000000
2.222222 6.000000 0.000000
1.777778 6.000000 0.000000
1.333333 6.000000 0.000000
0.888889 6.000000 0.000000
0.444444 6.000000 0.000000
0.000000 5.555556 0.000000
0.000000 5.111111 0.000000
0.000000 4.666667 0.000000
0.000000 4.222222 0.000000
0.000000 3.777778 0.000000
0.000000 3.333333 0.000000
0.000000 2.888889 0.000000
0.000000 2.444444 0.000000
0.000000 2.000000 0.000000
0.000000 1.555556 0.000000
0.000000 1.111111 0.000000
0.000000 0.666667 0.000000
0.000000 0.222222 0.000000
0.000000 -0.222222 0.000000
0.000000 -0.666667 0.000000
0.000000 -1.111111 0.000000
0.000000 -1.555556 0.000000
0.000000 -2.000000 0.000000
0.000000 -2.444444 0.000000
0.000000 -2.888889 0.000000
0.000000 -3.333333 0.000000
0.000000 -3.777778 0.000000
0.000000 -4.222222 0.000000
0.000000 -4.666667 0.000000
0.000000 -5.111111 0.000000
0.000000 -5.555556 0.000000
0.667813 5.523668 0.000000
27.906157 1.043705 0.000000
41.756974 -4.108301 0.000000
4.104273 -0.857566 0.000000
16.352280 -5.009057 0.000000
18.131904 3.218571 0.000000
11.529747 1.325810 0.000000
10.597275 -0.481960 0.000000
29.192675 -2.936059 0.000000
5.510710 -2.496631 0.000000
28.000372 0.739859 0.000000
39.439144 4.625291 0.000000
33.057571 -1.556740 0.000000
25.483745 0.273048 0.000000
30.460217 4.176301 0.000000
46.346522 0.203001 0.000000
5.724325 -2.653257 0.000000
28.051632 -3.630010 0.000000
36.190096 -4.767655 0.000000
47.497251 1.847912 0.000000
20.747759 3.235429 0.000000
26.064255 0.731118 0.000000
23.293122 2.810915 0.000000
8.360623 4.336013 0.000000
30.950613 2.744481 0.000000
8.469368 1.864508 0.000000
24.818767 -1.929146 0.000000
20.052937 3.041378 0.000000
21.884239 -3.364716 0.000000
18.204625 -1.917335 0.000000
31.131191 -0.578557 0.000000
10.580073 -2.476545 0.000000
34.992670 0.370541 0.000000
43.024241 1.660945 0.000000
10.924191 0.110264 0.000000
1.598619 -3.502419 0.000000
39.506293 1.471571 0.000000
40.675113 -1.587660 0.000000
45.465004 2.793765 0.000000
32.419644 -0.635517 0.000000
31.774052 -0.961062 0.000000
7.370477 -1.685923 0.000000
36.243602 -0.490501 0.000000
21.558295 0.558737 0.000000
36.951115 0.186327 0.000000
15.667184 -2.462258 0.000000
39.590809 -4.259667 0.000000
41.197099 0.544401 0.000000
44.683033 2.124645 0.000000
17.134002 1.479684 0.000000
29.591739 2.832947 0.000000
22.212921 4.187412 0.000000
28.741788 3.283389 0.000000
9.545689 -2.231350 0.000000
17.900566 5.550171 0.000000
9.777779 4.955939 0.000000
2.546972 2.245494 0.000000
17.030137 1.726161 0.000000
9.770300 -3.500244 0.000000
24.787657 0.117494 0.000000
41.699737 5.542705 0.000000
26.453735 1.744750 0.000000
5.783368 4.699000 0.000000
8.622452 -4.690400 0.000000
13.407364 -2.101323 0.000000
25.479639 0.560068 0.000000
14.350302 0.989442 0.000000
20.852822 -2.043712 0.000000
5.366057 -4.361544 0.000000
40.291401 0.293440 0.000000
26.562532 -1.215570 0.000000
34.200407 5.310899 0.000000
2.877623 -2.204389 0.000000
19.279383 5.282761 0.000000
46.535209 5.405886 0.000000
10.805319 -0.709737 0.000000
10.293589 4.136010 0.000000
18.837706 3.508589 0.000000
8.977499 -0.618306 0.000000
45.229849 -0.692076 0.000000
1.595233 1.158804 0.000000
[...]
POINT_DATA 3000
SCALARS P float 1
LOOKUP_TABLE default
910.400189
42.154426
-21.312874
-269.021561
231.925090
-9.829656
1441.894310
968.374935
996.213009
965.680524
971.668356
910.095418
933.121568
904.088788
901.472554
888.699205
879.029977
872.291919
862.256973
853.873220
844.323075
835.269962
825.835727
816.636650
807.300033
797.939443
788.747288
779.375220
770.166329
760.789962
751.537880
742.269722
732.967356
723.684409
714.392290
705.213979
695.854653
686.564212
677.228058
667.930973
658.668158
649.404426
640.083880
630.834238
621.469366
612.192234
602.938331
593.676971
584.502167
575.088072
565.953313
556.658776
547.358236
538.045313
528.815575
519.452714
510.201430
500.896282
491.608756
482.326174
473.184351
463.765804
454.596509
445.349038
435.973890
426.760373
417.427225
408.282275
398.976355
389.693952
380.412225
371.128662
361.795515
352.563656
343.250794
334.051130
324.738188
315.415054
306.122882
296.751789
287.650059
278.271886
269.066017
259.741605
250.493788
241.220882
231.935159
222.664014
213.367993
204.103676
194.828604
185.560193
176.264083
166.973442
157.702961
148.455445
139.133799
129.957453
120.703863
111.206361
101.952933
92.578805
82.986307
74.813707
65.244662
56.229960
49.029125
37.271679
37.049858
16.338616
10.263211
-35.122751
25.069488
-54.221926
12.593976
0.967624
-29.319221
33.178072
-74.025902
68.677899
-4.451384
-8.550948
12.070189
-122.939309
115.550318
-67.308163
-130.635788
69.965583
-138.874306
110.060079
-74.950393
-79.163997
-106.940504
-94.725449
52.533514
-33.369646
31.521874
-23.629406
-21.432530
-31.928952
-40.641697
-50.292932
-56.101652
-66.027646
-74.084530
-83.558349
-92.860291
-101.665935
-111.350779
-120.678382
-129.953005
-139.206830
-148.397013
-157.730127
-166.975965
-176.252874
-185.614531
-194.853486
-204.074376
-213.427443
-222.725847
-231.917785
-241.239903
-250.667738
-259.849879
-269.241192
-278.435047
-287.737062
-296.951059
-306.107437
-315.474218
-324.605502
-334.076450
-343.201229
-352.537820
-361.837112
-371.142541
-380.453625
-389.657507
-398.939837
-408.339568
-417.326580
-426.702674
-435.888300
-445.306437
-454.515523
-463.737242
-473.156043
-482.301334
-491.624037
-500.950360
-510.252915
-519.388817
-528.908783
-538.118238
-547.322954
-556.753323
-566.001110
-575.130549
-584.570230
-593.765055
-602.994729
-612.336957
-621.571207
-630.879985
-640.135632
-649.416463
-658.763649
-667.931469
-677.301602
-686.529944
-695.895653
-705.159874
-714.315818
-723.796522
-732.854865
-742.169699
-751.408453
-760.731726
-769.959073
-779.339461
-788.507989
-797.889628
-807.009749
-816.316698
-825.547392
-834.951675
-844.185610
-853.880209
-860.731857
-873.313141
-887.775175
-884.711533
-902.667054
-922.575978
-894.249756
-919.417095
-953.288002
-883.621267
-964.757457
-1061.203817
-1683.856390
-1227.702754
-672.906027
-2068.714146
-291.373247
-840.891922
-496.311269
-873.871837
-1358.015376
-224.502734
-1543.236466
-1795.779132
153.692954
-478.086876
171.466728
-343.351237
149.146740
-244.483653
43.203241
-365.105749
-334.026102
-114.612203
457.499218
1693.055647
361.694640
1148.927085
910.983188
975.183124
2083.048409
-573.855993
-72.938519
89.247101
132.548700
551.478132
-334.485578
-168.114560
62.669733
192.185329
368.678474
-51.697900
-137.714898
80.931842
-21.462432
-254.947527
-18.215454
390.243642
251.917641
195.965371
83.114231
-306.537238
-55.824884
-241.572598
-597.972045
-162.686960
-256.588395
155.273171
-295.535843
306.108816
198.458132
33.997013
322.353398
-16.602273
-28.216240
-14.048143
1598.399175
-43.434025
40.561434
-13.688639
34.474287
54.394551
239.502335
20.100426
-51.220196
-7.102630
276.892311
124.678276
-12.634646
-22.275445
-158.879139
-181.279236
-375.792019
-220.193781
298.153852
-581.185622
-658.893892
-251.304489
-185.974900
465.637974
-9.494125
-121.332282
-130.765936
-687.650058
642.675261
252.853693
-43.805230
-115.954099
192.963760
649.244763
-7.847620
90.623361
-255.471379
381.408864
-527.973378
-17.742429
91.737071
-542.133299
-356.015040
83.381721
2.014896
-374.982343
124.951774
-170.700566
-199.768764
-282.066546
146.575802
-465.037568
716.232718
212.891410
-338.967382
158.034492
18.147529
131.956066
-264.477695
583.941416
259.729984
220.290671
-250.634585
274.033860
-482.648766
-143.898044
-555.424694
543.719964
-412.706664
97.953982
-6.891252
369.745449
169.789388
73.693155
-0.321564
-132.214542
-482.239736
-4.061691
3.404868
-294.757908
150.832914
1313.048072
219.717846
-14.905593
-49.756284
-2.692626
-267.879598
-245.067935
-415.182573
-17.812726
-65.139467
-65.353616
-39.265342
59.981999
-113.349627
-131.047833
-240.431727
-538.367070
-90.673683
456.884869
60.384860
499.407464
-68.347996
-193.536168
14.125588
266.932375
-543.857342
305.831301
-216.580856
-252.080817
-10.058207
435.044024
82.954884
344.273996
79.310673
-235.042209
354.797615
96.404335
-405.566943
129.646562
23.814598
1575.729158
33.777910
2.374831
-43.370833
55.169630
105.878518
221.948441
-299.468038
211.134769
406.162135
274.628548
-110.312343
-438.340071
-51.472048
131.810089
-97.648915
484.838372
88.322763
585.736867
-2.065239
-78.105255
-173.938322
-405.187224
-243.381223
58.854646
444.920693
20.125990
-80.116724
9.752867
-16.847882
430.257135
203.247839
-222.525775
285.823494
66.074569
-618.357036
-482.289095
325.698853
-434.487873
38.304418
162.325296
-529.385710
-262.001190
-193.318821
298.823651
-5.258123
-282.629417
-172.825195
-12.359715
192.111412
124.168898
11.472915
-29.960393
51.274517
194.684875
139.896606
-101.550295
924.870159
-93.428384
-9.438108
-485.774982
-315.674288
228.866445
-161.744989
-9.170290
105.464855
-309.557094
-104.970862
-632.225019
-181.570162
-84.498808
418.456721
-15.911789
283.921107
-487.097868
160.893624
676.610744
-272.054008
45.794975
824.828486
63.629731
-219.654053
4.657582
-203.838759
115.313334
9.557585
-176.672453
-154.464941
-242.937205
75.779166
308.782079
-11.165831
238.076290
660.099980
174.589126
384.050038
-786.483901
314.654609
-71.608395
207.560486
428.915145
-43.770303
66.733071
-564.826363
178.204426
23.443065
283.007080
-626.290055
693.080787
13.890013
216.296351
174.934248
-146.083773
471.755268
-449.247255
135.271703
605.969659
229.789719
232.775877
-103.686823
310.646161
507.955034
214.182590
286.899008
-564.366351
451.181178
-493.217614
-29.183879
18.090950
-267.888982
817.524022
-797.620871
-44.679523
-362.807276
270.959065
399.907392
-154.356792
77.855461
11.018686
212.798659
120.620478
162.968634
561.888085
237.133217
-5.800374
494.136786
146.094684
694.621774
75.226184
-61.676279
-393.887230
-352.142897
-25.933599
302.946002
-106.193019
15.364296
-25.171082
371.585688
-522.541794
-8.519345
120.951980
73.066212
91.183645
-315.403110
-138.051912
135.010072
47.879467
416.463346
13.889458
-383.500395
-307.644036
43.707775
-329.901329
-124.817537
261.289925
-160.894510
104.052595
-75.041943
-460.794913
-277.503276
439.265558
57.911139
-452.004364
-382.616380
287.106659
390.277378
-194.372831
122.875521
-185.563588
46.735050
-76.131514
-725.731192
137.468943
-7.140880
63.863654
-172.985238
-221.000196
66.269054
-210.309083
-80.431063
172.372585
-131.295536
160.142176
-677.288875
-577.936227
-204.978784
-15.910749
318.418637
8.426667
7.654511
62.909043
48.732644
-540.779996
31.281627
53.892034
256.995613
189.600699
468.515455
382.181415
451.984892
-19.352543
-85.274795
135.811309
-63.551023
569.061753
175.291378
84.473494
-231.048882
52.314977
-781.865051
27.903687
195.198972
-58.479676
321.996251
350.797855
-492.309293
-47.589224
449.443763
-35.367445
-130.257848
-682.756932
-653.734253
16.156904
-203.553998
105.413503
-368.772780
-34.123657
24.401470
77.995386
18.712174
-357.782385
-58.163426
597.435577
560.921079
90.286397
23.120571
154.984409
192.026784
-379.879858
-6.895896
128.444661
42.965481
-309.483450
-492.518740
513.520817
47.929249
423.930484
2482.490722
-105.318970
26.045656
-152.975346
542.731248
-145.902933
29.847831
-241.217287
532.303602
-799.533513
177.123455
396.021384
23.817866
-288.461640
-34.186664
254.315669
-166.266110
-654.751550
197.196090
-58.722002
65.982479
-152.689360
-580.458726
-540.054777
-70.563487
-476.309103
107.010444
121.200590
247.687268
-189.442317
245.847155
364.360258
750.897248
44.237050
-109.912650
107.949256
13.401553
690.374664
-37.099066
-606.418634
68.247417
115.058759
-16.066287
254.070138
13.426346
464.566888
63.809676
-640.542512
642.853441
-179.598757
-323.502538
-72.487456
-429.664823
241.961867
205.525806
-89.972892
-784.574944
-366.072841
-26.642515
-9.613442
798.963123
-140.668140
-514.529639
49.893298
-265.034149
-165.366839
-474.941816
-126.859782
345.125390
-109.817313
328.898685
397.329874
-1106.901414
80.642298
-121.224625
245.554761
-49.598247
631.687834
-240.391748
503.545618
622.393210
-285.078272
-304.492164
521.261865
-384.807340
-238.617782
-376.029062
283.477703
-553.672731
159.566126
-323.872618
-130.403997
27.999863
260.796716
-294.745020
-257.464231
304.344287
108.610938
329.142827
0.688647
-16.514111
71.860194
-333.210997
-28.350184
114.907850
-139.986359
-164.312739
-1200.354620
-167.944911
-443.745730
-157.952640
73.492674
243.998523
181.776370
-470.055129
-153.556501
388.422819
-343.843174
-431.545343
-500.425261
291.813185
210.711750
-43.274785
11.486213
-26.420198
474.198756
-233.082196
-38.375182
310.558766
-277.246721
350.590146
-306.458683
-529.540559
72.847384
138.059184
57.893101
-40.342683
-201.086806
-181.722381
-286.478869
-316.758278
-136.503483
328.993840
124.596976
-84.152623
-107.388246
22.116816
315.910060
-6.955985
193.384564
-111.096699
131.272995
413.927596
455.330666
86.494694
635.043602
182.914541
-724.660876
-74.815051
-457.687967
-556.263072
294.562490
-32.885603
-191.052982
-151.983654
-444.072801
268.475243
-517.242780
-292.104976
504.415107
489.097287
475.618943
-111.220479
93.338816
-227.008102
13.294053
116.173941
206.798503
-85.586825
-10.747571
-265.128209
100.008891
-415.457852
237.385244
-41.015283
393.925853
229.758840
127.216097
-160.509735
-402.472617
388.124742
-129.917785
-395.015803
-26.678556
-672.457746
396.786303
518.829946
190.069087
679.382789
60.853368
242.710504
-62.880537
-476.123189
190.848374
-394.924358
22.099448
47.802755
-734.963954
-445.101630
325.756618
308.453206
-85.677870
62.046759
-86.251506
-117.457112
-53.407957
230.141787
-251.465079
364.916147
-186.540814
-13.256930
372.744237
-457.412685
421.231305
-780.583366
293.313693
-149.977370
198.546392
-56.719613
-213.800621
-127.961100
281.171165
-452.031407
-236.732853
-226.020122
-566.590986
446.050274
176.386044
108.481556
168.660648
-190.599581
24.800194
-149.832257
-111.892258
-665.058716
-459.960407
58.854691
-112.441460
-352.859210
-404.802949
348.029251
41.381308
-226.675100
-64.157091
-48.974557
702.867217
397.397486
271.913029
-131.058115
13.764075
-92.220896
630.021048
109.947150
70.540435
122.194293
-213.041133
390.753183
319.947976
-617.598575
509.117238
176.933860
-25.479712
-46.187397
-27.775302
-179.333896
-205.860045
-65.606528
-15.353131
-64.132429
-230.228738
171.199586
55.258393
-90.820743
37.834671
-248.623963
766.255121
-95.962513
109.698098
57.028838
-131.043462
-273.935153
632.483832
1110.925337
-178.149023
-58.932102
-134.261439
311.783399
-408.802804
-32.964059
-103.954156
-86.161141
-191.560960
-300.720099
49.573005
522.568945
378.308736
0.149647
-403.529438
189.604444
-173.222745
-197.533707
-32.059577
-93.395613
33.055599
-44.387016
-359.288176
719.495607
-199.067753
400.419778
270.159231
535.036572
-249.197694
98.142860
-14.370077
-54.340734
707.238850
10.311454
547.501914
-415.667109
-16.831561
584.472429
150.568938
-596.866335
45.002974
-159.956203
51.456875
-206.223907
-122.894046
119.324059
805.549650
-47.108725
5.985226
-692.649230
-27.597097
10.546724
44.476503
40.849582
-606.100911
-0.692953
-746.211453
-245.493846
-120.439771
-16.226387
95.455716
798.526945
-308.297973
190.255738
-87.189425
64.294061
92.999657
-340.371023
300.986629
209.151819
45.342960
201.258448
7.832400
3.568146
10.804420
-107.039788
27.487996
209.749423
-622.204304
369.406050
682.878428
346.336159
13.980175
111.553080
-268.772512
47.626836
788.405804
-56.208888
-117.189110
348.102239
-487.707457
15.173550
-32.134648
-38.084017
-728.066708
363.963723
93.699610
1.794564
-400.897548
81.548368
123.256512
491.533568
-431.132844
1058.045320
138.218611
-24.291756
-102.130921
151.411509
-122.789415
76.042603
508.688839
104.136211
-349.378767
569.170220
789.812506
500.533332
1.061946
518.166404
-17.497777
-538.704160
7.403701
-53.496929
-338.650852
-140.936697
-171.705435
-136.283637
284.493790
-55.679553
-132.991100
-249.246967
-188.024215
-15.942466
58.944758
30.269749
77.785228
315.524673
-186.398364
78.209745
-65.696913
91.663422
-52.434315
-58.737723
-11.945044
-297.211806
193.786684
41.677925
-721.238310
724.422637
-151.369314
81.919669
30.289181
41.257476
375.503736
575.843601
-373.915832
350.745429
-21.994392
176.907433
4.220592
154.422121
42.553599
570.547408
524.420748
-14.557447
-785.286905
-416.053972
44.086133
-339.869378
406.616062
-243.081794
-443.295651
-13.484095
696.997344
163.293821
-59.628498
-36.586386
31.448803
-141.830375
102.766667
211.198798
-596.819951
111.106864
235.134876
-423.888146
372.458515
-217.596405
363.322375
-248.472831
66.769792
197.681738
37.438592
152.941154
59.136255
-281.894627
-160.039360
-8.931222
687.999937
209.966000
-459.692375
8.195841
561.442571
101.995781
252.514686
-490.412412
47.172330
-941.000218
71.156280
44.518639
467.172205
-6.279759
-851.408365
-124.519439
175.883651
125.563431
350.915538
-120.145871
-275.617110
-52.084331
4.606483
-181.189072
-353.877183
5.256613
6.697538
-813.086011
-613.097753
172.703324
-107.812552
165.449069
-169.294382
-3.643140
257.167310
-353.088149
-215.786945
-520.162369
190.558715
28.919473
-386.899008
256.447574
112.606503
-83.089007
-429.426218
41.866526
190.507361
-62.788117
-168.985521
-80.117066
-142.924281
121.031052
-60.977217
131.585025
-0.242524
165.365843
-402.284699
-13.310754
-333.582578
-49.770289
-111.888720
-125.076823
-34.357132
109.884605
114.726303
1097.916850
-180.928508
-126.541569
-60.037369
-679.911068
47.956350
-320.705310
-11.023033
-156.077603
100.868587
129.455223
41.817888
119.306052
729.724477
-16.144489
38.734293
-81.725347
376.779264
-77.302727
-340.607124
165.872875
395.682276
-37.990205
40.012824
-13.801858
634.591011
-211.205987
-229.040035
470.151729
222.547344
766.703903
9.625343
136.450339
-238.777481
-22.062817
11.576133
190.456677
-79.599820
227.621425
331.838288
-654.895009
317.465983
20.381652
-231.128427
-114.021316
-453.786004
-247.772659
316.666158
-703.952518
31.820479
-120.807286
122.860345
-423.243706
49.066429
0.538317
395.881589
-495.537563
33.108707
9.811070
-56.266933
145.511808
-1152.649719
289.127552
-41.739124
-45.720968
-277.904219
-193.276779
542.867707
-155.081603
-79.027990
562.547266
-432.882998
-746.141595
-25.552790
-26.262403
-45.532725
3169.592349
-488.134523
-98.006870
216.277349
123.307883
-202.273360
129.888062
-73.748950
116.026578
-69.411766
621.650913
172.077972
-118.210884
1223.829427
-0.058105
-310.570753
-194.420617
632.281274
46.884036
158.576561
-712.402579
-24.628372
135.104420
501.113300
-168.659041
102.346251
-270.628684
-19.799466
-68.628885
-220.805583
-258.533637
165.184212
48.158685
52.266733
362.940192
-198.223941
34.537327
-139.044087
32.241301
-62.775743
-49.132462
85.945448
291.611698
-292.673979
82.431623
398.238337
-377.111081
126.534423
-239.187769
245.802741
-305.167718
-175.154152
559.588047
84.806296
-311.300908
-196.967962
820.044470
146.934761
-233.468568
61.559543
-252.364636
23.311802
-78.931317
-117.339020
-300.455506
-353.467676
-221.941690
-328.787458
-253.068093
117.649235
307.547624
-431.483549
-19.391911
-22.942511
-424.090880
11.491608
-189.929362
-70.346028
-40.669611
595.047420
674.271556
84.950484
-24.866614
69.973103
198.618895
174.181887
-467.114596
-144.392251
-440.499674
-364.031965
-806.805862
30.738121
-348.262294
-480.387221
128.859951
44.434135
18.943497
-217.117882
-12.746317
90.909615
-40.574171
-43.419569
3.685280
117.249066
-504.448429
655.609260
-223.977889
88.989885
495.960690
222.773522
-91.392058
1481.826770
-280.772669
-22.220459
269.431865
557.510887
-296.813530
-213.322708
-262.073515
-92.158668
-694.877783
361.378862
527.439270
-1103.412649
-72.529304
112.634290
-345.540756
-581.299235
-280.941587
209.314816
7.180644
265.751451
528.074965
-131.296444
-24.719751
366.714553
-374.749911
287.805621
-707.289690
388.554904
161.441034
-42.658648
-541.088186
-30.661886
557.216884
-100.182780
267.592866
-313.573193
-220.841498
188.086543
82.618765
-103.726914
-506.924012
-108.915011
627.110107
79.517215
-519.320891
116.445419
-14.990806
237.270618
477.852454
19.484203
44.885852
-78.206891
31.747970
-21.409019
689.298279
-587.468192
225.731863
315.603174
478.162650
-360.180632
-170.542424
-106.916252
149.113613
-336.573110
-506.683477
-628.134935
-463.665613
45.900933
-258.081649
-104.082348
-492.327819
-357.537143
18.452818
154.504643
-5.779917
420.798086
215.905069
202.475649
589.904773
-95.381082
-111.943505
-376.111369
-66.014739
224.877374
289.384645
419.569231
-579.495091
-42.694157
-31.001916
37.122297
520.450829
42.571496
262.049462
-209.579689
-0.305344
13.483710
47.335004
462.366411
120.988696
-702.558387
386.169635
-73.336065
-357.673898
453.475703
22.658264
164.291140
102.031459
-216.893573
34.348585
359.558114
-279.135839
-413.446469
-275.232724
320.431287
217.616479
88.931502
-289.744555
196.023173
-97.558747
54.502083
325.119546
-0.455830
17.627133
-61.564101
-825.194990
220.412473
-213.675321
-127.635886
-87.735732
-177.260320
-138.925389
-14.078853
-530.562957
61.626319
-177.538352
169.172574
92.544423
-124.644694
-33.905180
584.387976
27.021455
412.935829
305.067473
-35.048724
-600.337462
169.331665
429.028906
-304.588044
-109.119984
56.628922
-463.412584
430.436068
180.671932
-195.533765
-388.723734
413.495463
-652.849045
-237.951090
605.746131
-343.445884
-179.911240
23.212356
23.200378
-32.599034
139.471066
765.045027
-404.808969
-692.821928
108.475161
-566.072581
153.179320
-542.838349
-390.859892
-435.692070
-2278.797246
-102.370150
140.367566
912.267213
-66.143300
-34.161789
52.223913
-89.149459
-94.874116
-146.523653
-315.265282
-554.046334
353.016013
-275.203913
-69.878571
-105.812179
-101.478506
-39.487462
-93.889103
-142.130369
407.747152
-47.724784
134.930515
-739.105544
132.520009
62.174850
370.160955
46.200428
38.317249
-390.433973
854.898237
-544.736448
-365.814968
643.995425
628.624510
-138.587080
-265.400333
506.427539
435.410181
-48.876137
278.305960
-46.691190
621.346980
-17.688395
-850.314341
184.513950
60.667552
-261.224596
-92.397636
59.374459
-464.097802
-69.014211
145.933041
222.637405
-24.365586
-65.579205
-201.049639
264.733150
-93.159550
444.836751
-192.714695
13.767216
-423.102382
-156.886649
-130.422999
-228.730066
15.368232
302.240978
139.532149
420.567546
-22.621887
160.648450
50.345441
35.330740
185.406768
-41.291028
-41.343437
-467.947288
-264.751609
115.736538
31.276624
278.324053
-21.438821
-438.272863
162.364525
125.074715
432.690159
220.810871
102.137270
606.007680
-50.287832
222.818523
-62.118858
153.262010
818.592165
-590.609471
-308.736704
56.716752
-302.045027
10.769754
-160.120887
304.179250
-472.497781
23.859963
667.353686
-48.160830
85.039444
738.251143
-7.764462
-230.345433
-0.312772
129.559761
72.809472
415.172575
487.400862
673.583273
77.961932
54.547927
-153.812845
-19.346154
432.218451
-290.081323
-59.173989
-13.134960
121.834371
-185.043649
80.405500
536.925671
-760.234058
-132.157387
522.940405
20.143088
-655.394775
695.270044
135.769665
-43.289161
470.266753
522.331632
178.102719
-373.430086
-70.233131
42.133585
-178.569237
-1861.971076
-294.029135
200.216864
143.988296
-47.637297
-461.211838
27.523128
-436.069434
547.852643
103.540958
418.903604
130.896351
-120.208730
-90.876413
-217.628939
34.809717
-509.237616
652.681600
-248.366667
-300.176501
-777.412875
-336.502018
213.727865
-316.107801
-289.589699
158.783336
44.369004
-155.030546
104.060126