# vtk DataFile Version 2.0
cantilever_quad8_mix
ASCII
DATASET POLYDATA
POINTS 230 float
0.000000 -6.000000 0.000000
48.000000 -6.000000 0.000000
48.000000 6.000000 0.000000
0.000000 6.000000 0.000000
1.500000 -6.000000 0.000000
3.000000 -6.000000 0.000000
4.500000 -6.000000 0.000000
6.000000 -6.000000 0.000000
7.500000 -6.000000 0.000000
9.000000 -6.000000 0.000000
10.500000 -6.000000 0.000000
12.000000 -6.000000 0.000000
13.500000 -6.000000 0.000000
15.000000 -6.000000 0.000000
16.500000 -6.000000 0.000000
18.000000 -6.000000 0.000000
19.500000 -6.000000 0.000000
21.000000 -6.000000 0.000000
22.500000 -6.000000 0.000000
24.000000 -6.000000 0.000000
25.500000 -6.000000 0.000000
27.000000 -6.000000 0.000000
28.500000 -6.000000 0.000000
30.000000 -6.000000 0.000000
31.500000 -6.000000 0.000000
33.000000 -6.000000 0.000000
34.500000 -6.000000 0.000000
36.000000 -6.000000 0.000000
37.500000 -6.000000 0.000000
39.000000 -6.000000 0.000000
40.500000 -6.000000 0.000000
42.000000 -6.000000 0.000000
43.500000 -6.000000 0.000000
45.000000 -6.000000 0.000000
46.500000 -6.000000 0.000000
48.000000 -4.500000 0.000000
48.000000 -3.000000 0.000000
48.000000 -1.500000 0.000000
48.000000 -0.000000 0.000000
48.000000 1.500000 0.000000
48.000000 3.000000 0.000000
48.000000 4.500000 0.000000
46.500000 6.000000 0.000000
45.000000 6.000000 0.000000
43.500000 6.000000 0.000000
42.000000 6.000000 0.000000
40.500000 6.000000 0.000000
39.000000 6.000000 0.000000
37.500000 6.000000 0.000000
36.000000 6.000000 0.000000
34.500000 6.000000 0.000000
33.000000 6.000000 0.000000
31.500000 6.000000 0.000000
30.000000 6.000000 0.000000
28.500000 6.000000 0.000000
27.000000 6.000000 0.000000
25.500000 6.000000 0.000000
24.000000 6.000000 0.000000
22.500000 6.000000 0.000000
21.000000 6.000000 0.000000
19.500000 6.000000 0.000000
18.000000 6.000000 0.000000
16.500000 6.000000 0.000000
15.000000 6.000000 0.000000
13.500000 6.000000 0.000000
12.000000 6.000000 0.000000
10.500000 6.000000 0.000000
9.000000 6.000000 0.000000
7.500000 6.000000 0.000000
6.000000 6.000000 0.000000
4.500000 6.000000 0.000000
3.000000 6.000000 0.000000
1.500000 6.000000 0.000000
0.000000 4.500000 0.000000
0.000000 3.000000 0.000000
0.000000 1.500000 0.000000
0.000000 0.000000 0.000000
0.000000 -1.500000 0.000000
0.000000 -3.000000 0.000000
0.000000 -4.500000 0.000000
16.460943 4.244375 0.000000
19.996434 -0.861082 0.000000
28.636039 4.244884 0.000000
37.353680 -4.246365 0.000000
22.971643 0.848659 0.000000
23.412577 4.236971 0.000000
39.144009 4.243117 0.000000
19.030654 -2.553376 0.000000
14.242653 -4.236612 0.000000
37.612258 -2.536625 0.000000
17.038548 -2.548194 0.000000
30.460966 2.558928 0.000000
15.989627 2.538758 0.000000
20.041368 -4.255841 0.000000
37.467599 2.552373 0.000000
41.052340 -0.845153 0.000000
31.763253 -4.268589 0.000000
7.155448 -4.229110 0.000000
24.923759 0.866496 0.000000
14.002373 2.533223 0.000000
42.660223 4.238838 0.000000
35.537240 -4.247758 0.000000
20.991721 0.841632 0.000000
12.827653 4.236655 0.000000
34.189397 -0.834135 0.000000
5.220870 -2.522481 0.000000
7.092646 4.236263 0.000000
11.012367 0.835846 0.000000
42.774444 -0.844941 0.000000
12.359775 -4.242004 0.000000
21.634584 4.229445 0.000000
9.046642 -2.536057 0.000000
3.360008 4.252113 0.000000
29.872420 -4.264712 0.000000
13.042639 -2.541937 0.000000
41.045252 -2.548595 0.000000
44.485335 0.855752 0.000000
10.568328 -4.241814 0.000000
46.212293 0.878385 0.000000
30.378203 4.248168 0.000000
46.217212 -2.573046 0.000000
18.166730 4.236249 0.000000
9.000176 4.240120 0.000000
35.896795 -0.830134 0.000000
22.031542 -4.257693 0.000000
44.498478 -0.843540 0.000000
19.883621 4.233024 0.000000
32.303299 0.868693 0.000000
5.891071 -0.834451 0.000000
23.988041 -4.264955 0.000000
44.453369 -4.239507 0.000000
27.933443 -4.259574 0.000000
46.217844 -0.853206 0.000000
25.180447 4.249317 0.000000
40.887993 4.244997 0.000000
1.729232 4.065210 0.000000
3.799595 -0.879989 0.000000
26.903978 -2.569994 0.000000
24.962378 -2.566084 0.000000
13.018115 0.838187 0.000000
29.176074 -0.839416 0.000000
46.214150 -4.260821 0.000000
44.490894 -2.544931 0.000000
21.697870 2.544838 0.000000
19.838742 2.542637 0.000000
33.660583 -4.252355 0.000000
30.520395 0.877878 0.000000
32.149614 4.241186 0.000000
3.444452 -2.652467 0.000000
7.959080 -0.848481 0.000000
32.501641 -0.843397 0.000000
42.752724 0.855053 0.000000
39.332176 -0.842437 0.000000
15.049418 -2.541404 0.000000
46.205611 2.592211 0.000000
7.098141 -2.533869 0.000000
25.698513 -0.856961 0.000000
39.221395 2.549898 0.000000
5.055216 0.843582 0.000000
11.033243 -2.542305 0.000000
1.809602 -1.920415 0.000000
26.987598 2.546852 0.000000
41.019965 0.856146 0.000000
11.999650 2.530174 0.000000
42.767729 -2.546707 0.000000
34.061184 0.867317 0.000000
21.015974 -2.565170 0.000000
40.881989 -4.247386 0.000000
37.613267 -0.835030 0.000000
25.943726 -4.269017 0.000000
32.436381 -2.547144 0.000000
35.695566 4.248552 0.000000
46.202805 4.275896 0.000000
23.864625 -0.852691 0.000000
5.933922 2.530185 0.000000
44.441139 4.239936 0.000000
1.756470 -0.014796 0.000000
14.686282 4.242822 0.000000
15.021606 0.840688 0.000000
42.717158 2.551058 0.000000
37.428814 4.245327 0.000000
25.261003 2.559192 0.000000
5.203015 4.241190 0.000000
18.083963 -4.254924 0.000000
16.030765 -0.848500 0.000000
35.807554 0.867834 0.000000
14.030251 -0.851759 0.000000
9.990751 2.523331 0.000000
28.719261 2.550514 0.000000
23.504927 2.552930 0.000000
28.811383 -2.547982 0.000000
37.548840 0.861901 0.000000
3.281037 0.882115 0.000000
40.970988 2.552761 0.000000
34.191026 -2.534814 0.000000
7.971454 2.529050 0.000000
12.021297 -0.853569 0.000000
42.667308 -4.239421 0.000000
35.714783 2.559029 0.000000
27.471361 -0.856170 0.000000
3.604733 -4.306849 0.000000
8.862725 -4.231419 0.000000
26.920069 4.245668 0.000000
1.782096 -4.008987 0.000000
19.012266 0.836860 0.000000
5.399472 -4.217077 0.000000
10.002223 -0.847794 0.000000
39.325233 -2.545051 0.000000
3.898350 2.604418 0.000000
9.002621 0.835550 0.000000
39.114050 -4.247934 0.000000
30.646610 -2.547704 0.000000
18.018879 -0.856075 0.000000
23.000679 -2.556227 0.000000
35.908241 -2.532399 0.000000
7.007027 0.838501 0.000000
33.933019 4.242107 0.000000
32.211470 2.556702 0.000000
28.696897 0.874596 0.000000
1.860702 2.168413 0.000000
17.941219 2.542370 0.000000
33.962951 2.557494 0.000000
10.911128 4.240528 0.000000
26.832294 0.865284 0.000000
16.160709 -4.253408 0.000000
39.285975 0.856899 0.000000
17.024939 0.843612 0.000000
21.948822 -0.858722 0.000000
30.836595 -0.843605 0.000000
44.461031 2.551254 0.000000
POLYGONS 378 1512
3 0 4 79
3 203 4 5
3 200 203 5
3 203 79 4
3 6 205 200
3 205 6 7
3 5 6 200
3 200 205 105
3 7 8 97
3 8 9 201
3 205 97 155
3 97 8 201
3 117 201 9
3 159 117 109
3 10 117 9
3 201 117 111
3 7 97 205
3 155 97 201
3 160 78 203
3 203 78 79
3 203 200 148
3 160 203 148
3 77 176 76
3 176 77 160
3 160 136 176
3 136 160 148
3 77 78 160
3 192 176 136
3 148 105 136
3 155 105 205
3 201 111 155
3 111 159 206
3 155 111 149
3 105 128 136
3 105 155 128
3 128 149 215
3 128 155 149
3 111 206 149
3 136 128 158
3 159 196 206
3 148 200 105
3 117 159 111
3 206 209 149
3 117 10 11
3 109 11 12
3 88 12 13
3 224 14 183
3 14 224 13
3 15 183 14
3 183 15 16
3 90 224 183
3 224 88 13
3 16 17 93
3 17 18 124
3 93 124 166
3 93 17 124
3 129 138 213
3 129 124 18
3 19 129 18
3 124 129 213
3 16 93 183
3 87 183 93
3 109 88 114
3 88 109 12
3 114 88 153
3 114 196 159
3 139 196 186
3 196 114 186
3 153 184 186
3 90 184 153
3 114 153 186
3 206 196 107
3 88 224 153
3 159 109 114
3 212 90 87
3 224 90 153
3 87 166 81
3 87 93 166
3 87 90 183
3 213 227 166
3 204 212 81
3 81 212 87
3 81 227 102
3 173 227 213
3 81 166 227
3 226 184 212
3 173 213 138
3 90 212 184
3 124 213 166
3 186 184 178
3 173 156 98
3 109 117 11
3 84 227 173
3 192 219 176
3 136 158 192
3 192 158 208
3 219 75 176
3 74 75 219
3 74 219 135
3 75 76 176
3 192 208 219
3 208 112 219
3 158 174 208
3 195 215 209
3 158 128 215
3 215 149 209
3 187 209 107
3 174 195 106
3 174 215 195
3 195 187 122
3 163 187 107
3 209 187 195
3 208 174 182
3 107 139 163
3 215 174 158
3 107 209 206
3 222 187 163
3 72 73 135
3 135 73 74
3 135 219 112
3 71 135 112
3 72 3 73
3 70 71 112
3 72 135 71
3 112 182 70
3 69 182 106
3 112 208 182
3 68 106 122
3 182 174 106
3 122 106 195
3 66 122 222
3 68 69 106
3 66 67 122
3 68 122 67
3 66 222 65
3 182 69 70
3 187 222 122
3 222 163 103
3 139 107 196
3 226 178 184
3 178 139 186
3 139 178 99
3 177 99 92
3 99 178 92
3 226 220 92
3 220 226 204
3 178 226 92
3 80 92 220
3 204 144 220
3 99 103 163
3 143 102 84
3 204 81 102
3 102 227 84
3 189 84 98
3 220 144 121
3 110 144 143
3 110 143 85
3 189 143 84
3 144 102 143
3 85 143 189
3 189 133 85
3 102 144 204
3 212 204 226
3 144 110 126
3 92 80 177
3 177 103 99
3 177 80 63
3 103 177 64
3 64 65 103
3 62 63 80
3 64 177 63
3 80 61 62
3 65 222 103
3 60 61 121
3 121 61 80
3 60 121 126
3 110 85 58
3 121 80 220
3 126 110 59
3 59 60 126
3 57 58 85
3 110 58 59
3 57 85 133
3 144 126 121
3 181 189 98
3 163 139 99
3 173 98 84
3 129 19 20
3 20 21 169
3 21 22 131
3 169 131 137
3 169 21 131
3 113 23 24
3 113 131 22
3 23 113 22
3 190 131 113
3 169 138 129
3 24 25 96
3 25 26 145
3 113 96 211
3 96 25 145
3 214 101 83
3 101 145 26
3 27 101 26
3 145 170 96
3 24 96 113
3 194 145 101
3 156 138 137
3 137 138 169
3 137 131 190
3 199 137 190
3 223 156 199
3 156 137 199
3 140 211 228
3 140 199 190
3 211 140 190
3 218 199 140
3 211 190 113
3 223 98 156
3 145 194 170
3 194 101 214
3 194 214 123
3 170 194 150
3 127 228 150
3 150 228 170
3 104 165 150
3 104 150 194
3 194 123 104
3 140 228 146
3 123 214 168
3 170 228 211
3 96 170 211
3 185 104 123
3 83 101 27
3 169 129 20
3 28 29 210
3 29 30 210
3 210 89 83
3 83 28 210
3 197 167 31
3 167 210 30
3 31 167 30
3 167 207 210
3 28 83 27
3 32 33 130
3 33 34 141
3 130 141 120
3 130 33 141
3 35 141 34
3 1 35 34
3 141 35 36
3 31 32 197
3 197 32 130
3 167 115 207
3 207 89 210
3 95 115 164
3 207 115 152
3 168 214 89
3 168 89 152
3 168 152 225
3 152 89 207
3 115 95 152
3 95 162 152
3 115 197 164
3 167 197 115
3 164 142 108
3 197 130 164
3 120 36 37
3 164 130 142
3 142 130 120
3 142 120 132
3 151 95 108
3 108 142 125
3 132 37 38
3 132 125 142
3 37 132 120
3 125 132 118
3 164 108 95
3 141 36 120
3 123 168 191
3 89 214 83
3 125 116 108
3 228 127 146
3 140 146 218
3 218 146 91
3 223 218 161
3 161 202 181
3 161 181 223
3 188 82 161
3 91 188 218
3 161 218 188
3 91 119 188
3 146 217 91
3 181 98 223
3 221 127 165
3 165 127 150
3 165 104 185
3 198 165 185
3 216 147 217
3 217 147 91
3 216 217 221
3 198 221 165
3 217 127 221
3 171 221 198
3 198 94 180
3 127 217 146
3 218 223 199
3 91 147 119
3 56 133 202
3 202 133 181
3 202 161 82
3 54 202 82
3 55 56 202
3 53 54 82
3 55 202 54
3 82 119 53
3 133 56 57
3 119 147 52
3 119 82 188
3 171 180 49
3 171 216 221
3 198 180 171
3 50 216 171
3 52 147 51
3 49 50 171
3 51 216 50
3 180 48 49
3 119 52 53
3 147 216 51
3 198 185 94
3 133 189 181
3 157 191 225
3 191 168 225
3 225 152 162
3 193 225 162
3 86 94 157
3 157 94 191
3 100 193 179
3 193 157 225
3 162 179 193
3 193 134 157
3 162 151 179
3 191 94 185
3 108 116 151
3 151 162 95
3 125 118 116
3 151 116 229
3 179 229 175
3 154 229 118
3 118 39 154
3 39 118 38
3 229 116 118
3 154 39 40
3 151 229 179
3 185 123 191
3 229 154 175
3 193 100 134
3 134 86 157
3 134 100 45
3 86 134 46
3 48 180 47
3 45 46 134
3 47 86 46
3 100 44 45
3 180 86 47
3 43 175 172
3 175 154 172
3 40 41 172
3 100 179 175
3 42 172 41
3 43 44 175
3 2 42 41
3 43 172 42
3 175 44 100
3 154 40 172
3 86 180 94
3 38 118 132
3 173 138 156
POINT_DATA 230
SCALARS P float 1
LOOKUP_TABLE default
-4083.377757
-163.943923
335.191138
3280.550705
1211.680220
104.856788
548.217375
1626.249557
13.448667
1602.941896
277.606266
1127.695032
552.707308
829.775283
582.102974
750.286831
533.001353
627.875763
519.766743
543.998115
459.439532
470.612334
400.611755
409.052639
334.995058
337.968027
272.211387
301.097861
145.243792
321.576956
23.208764
211.113193
128.344464
-95.670483
253.259178
34.765359
-86.110241
65.123572
-1.318374
-68.894104
127.906362
-119.549379
-373.004765
172.003186
-148.237932
-265.933109
110.336790
-515.136101
56.077294
-475.821093
-176.515299
-341.463965
-405.313559
-308.773081
-499.190245
-376.687554
-536.698229
-489.156274
-544.733739
-604.495819
-579.446090
-671.636778
-660.362158
-734.468455
-691.832201
-866.228740
-679.347819
-1007.983427
-661.056454
-1167.392002
-667.846808
-684.022793
-783.602838
-5115.146248
1916.281739
-1155.677119
475.023044
616.324322
-1886.663716
5338.159797
-468.391118
85.246226
-258.871044
193.074886
-77.911793
-397.133789
19.925455
265.436914
538.882533
69.361319
290.216330
-129.048492
-295.356264
437.063456
-3.921190
176.663319
250.286505
1031.573127
-68.882274
-298.701226
112.373364
174.697195
-80.780952
-515.738874
47.959735
688.574312
-634.231434
-96.206651
-181.083296
469.519618
-380.583044
446.230027
-1057.513466
274.670886
355.452941
-53.584492
-240.291577
705.913234
197.584568
-315.034043
169.161028
-452.470989
-592.533678
12.331449
388.133229
229.546875
-437.431917
-31.812373
158.909905
369.222962
187.573292
306.307664
-188.469350
-319.419101
-293.946971
-303.703008
82.327477
194.493046
210.240803
-115.511355
57.072487
-88.585850
-143.571983
-248.542917
-251.768981
220.812654
-62.492131
-170.833897
-123.190594
131.905587
46.141148
195.673517
-60.957547
277.237600
-205.078069
193.768486
69.610380
-209.745690
-253.586157
280.696796
949.646454
-171.622078
-196.724894
-335.916488
200.919240
-71.199595
245.497025
206.350910
74.360590
337.429126
137.420445
-81.763973
146.776319
71.804666
-417.681675
-248.938576
-267.664879
-523.483839
-92.046436
-251.059815
-283.013452
-224.603417
-555.579176
447.398215
105.287074
7.576980
88.900378
-333.067699
-198.972959
-210.631410
174.579039
-97.996818
78.626708
115.395336
129.178969
-358.050139
121.126531
-38.767523
-191.786675
62.601642
1604.024838
330.324292
-351.999374
172.357275
-86.737322
78.515165
100.172712
139.740629
-293.971340
-139.824871
74.332228
160.515311
90.346925
231.078300
117.719943
-71.612139
-302.761598
-193.989577
-55.584943
-546.256514
-274.804673
-62.982071
-572.963852
-69.353610
480.493648
82.152115
-96.184970
82.106207
51.022644
182.385675
