# vtk DataFile Version 2.0
cantilever_tri3_mix
ASCII
DATASET POLYDATA
POINTS 297 float
0.000000 -6.000000 0.000000
48.000000 -6.000000 0.000000
48.000000 6.000000 0.000000
0.000000 6.000000 0.000000
1.500000 -6.000000 0.000000
3.000000 -6.000000 0.000000
4.500000 -6.000000 0.000000
6.000000 -6.000000 0.000000
7.500000 -6.000000 0.000000
9.000000 -6.000000 0.000000
10.500000 -6.000000 0.000000
12.000000 -6.000000 0.000000
13.500000 -6.000000 0.000000
15.000000 -6.000000 0.000000
16.500000 -6.000000 0.000000
18.000000 -6.000000 0.000000
19.500000 -6.000000 0.000000
21.000000 -6.000000 0.000000
22.500000 -6.000000 0.000000
24.000000 -6.000000 0.000000
25.500000 -6.000000 0.000000
27.000000 -6.000000 0.000000
28.500000 -6.000000 0.000000
30.000000 -6.000000 0.000000
31.500000 -6.000000 0.000000
33.000000 -6.000000 0.000000
34.500000 -6.000000 0.000000
36.000000 -6.000000 0.000000
37.500000 -6.000000 0.000000
39.000000 -6.000000 0.000000
40.500000 -6.000000 0.000000
42.000000 -6.000000 0.000000
43.500000 -6.000000 0.000000
45.000000 -6.000000 0.000000
46.500000 -6.000000 0.000000
48.000000 -4.500000 0.000000
48.000000 -3.000000 0.000000
48.000000 -1.500000 0.000000
48.000000 -0.000000 0.000000
48.000000 1.500000 0.000000
48.000000 3.000000 0.000000
48.000000 4.500000 0.000000
46.500000 6.000000 0.000000
45.000000 6.000000 0.000000
43.500000 6.000000 0.000000
42.000000 6.000000 0.000000
40.500000 6.000000 0.000000
39.000000 6.000000 0.000000
37.500000 6.000000 0.000000
36.000000 6.000000 0.000000
34.500000 6.000000 0.000000
33.000000 6.000000 0.000000
31.500000 6.000000 0.000000
30.000000 6.000000 0.000000
28.500000 6.000000 0.000000
27.000000 6.000000 0.000000
25.500000 6.000000 0.000000
24.000000 6.000000 0.000000
22.500000 6.000000 0.000000
21.000000 6.000000 0.000000
19.500000 6.000000 0.000000
18.000000 6.000000 0.000000
16.500000 6.000000 0.000000
15.000000 6.000000 0.000000
13.500000 6.000000 0.000000
12.000000 6.000000 0.000000
10.500000 6.000000 0.000000
9.000000 6.000000 0.000000
7.500000 6.000000 0.000000
6.000000 6.000000 0.000000
4.500000 6.000000 0.000000
3.000000 6.000000 0.000000
1.500000 6.000000 0.000000
0.000000 4.500000 0.000000
0.000000 3.000000 0.000000
0.000000 1.500000 0.000000
0.000000 0.000000 0.000000
0.000000 -1.500000 0.000000
0.000000 -3.000000 0.000000
0.000000 -4.500000 0.000000
1.500000 -4.500000 0.000000
1.500000 -3.000000 0.000000
1.500000 -1.500000 0.000000
1.500000 0.000000 0.000000
1.500000 1.500000 0.000000
1.500000 3.000000 0.000000
1.500000 4.500000 0.000000
3.000000 -4.500000 0.000000
3.000000 -3.000000 0.000000
3.000000 -1.500000 0.000000
3.000000 0.000000 0.000000
3.000000 1.500000 0.000000
3.000000 3.000000 0.000000
3.000000 4.500000 0.000000
4.500000 -4.500000 0.000000
4.500000 -3.000000 0.000000
4.500000 -1.500000 0.000000
4.500000 0.000000 0.000000
4.500000 1.500000 0.000000
4.500000 3.000000 0.000000
4.500000 4.500000 0.000000
6.000000 -4.500000 0.000000
6.000000 -3.000000 0.000000
6.000000 -1.500000 0.000000
6.000000 0.000000 0.000000
6.000000 1.500000 0.000000
6.000000 3.000000 0.000000
6.000000 4.500000 0.000000
7.500000 -4.500000 0.000000
7.500000 -3.000000 0.000000
7.500000 -1.500000 0.000000
7.500000 0.000000 0.000000
7.500000 1.500000 0.000000
7.500000 3.000000 0.000000
7.500000 4.500000 0.000000
9.000000 -4.500000 0.000000
9.000000 -3.000000 0.000000
9.000000 -1.500000 0.000000
9.000000 0.000000 0.000000
9.000000 1.500000 0.000000
9.000000 3.000000 0.000000
9.000000 4.500000 0.000000
10.500000 -4.500000 0.000000
10.500000 -3.000000 0.000000
10.500000 -1.500000 0.000000
10.500000 0.000000 0.000000
10.500000 1.500000 0.000000
10.500000 3.000000 0.000000
10.500000 4.500000 0.000000
12.000000 -4.500000 0.000000
12.000000 -3.000000 0.000000
12.000000 -1.500000 0.000000
12.000000 0.000000 0.000000
12.000000 1.500000 0.000000
12.000000 3.000000 0.000000
12.000000 4.500000 0.000000
13.500000 -4.500000 0.000000
13.500000 -3.000000 0.000000
13.500000 -1.500000 0.000000
13.500000 0.000000 0.000000
13.500000 1.500000 0.000000
13.500000 3.000000 0.000000
13.500000 4.500000 0.000000
15.000000 -4.500000 0.000000
15.000000 -3.000000 0.000000
15.000000 -1.500000 0.000000
15.000000 0.000000 0.000000
15.000000 1.500000 0.000000
15.000000 3.000000 0.000000
15.000000 4.500000 0.000000
16.500000 -4.500000 0.000000
16.500000 -3.000000 0.000000
16.500000 -1.500000 0.000000
16.500000 0.000000 0.000000
16.500000 1.500000 0.000000
16.500000 3.000000 0.000000
16.500000 4.500000 0.000000
18.000000 -4.500000 0.000000
18.000000 -3.000000 0.000000
18.000000 -1.500000 0.000000
18.000000 0.000000 0.000000
18.000000 1.500000 0.000000
18.000000 3.000000 0.000000
18.000000 4.500000 0.000000
19.500000 -4.500000 0.000000
19.500000 -3.000000 0.000000
19.500000 -1.500000 0.000000
19.500000 0.000000 0.000000
19.500000 1.500000 0.000000
19.500000 3.000000 0.000000
19.500000 4.500000 0.000000
21.000000 -4.500000 0.000000
21.000000 -3.000000 0.000000
21.000000 -1.500000 0.000000
21.000000 0.000000 0.000000
21.000000 1.500000 0.000000
21.000000 3.000000 0.000000
21.000000 4.500000 0.000000
22.500000 -4.500000 0.000000
22.500000 -3.000000 0.000000
22.500000 -1.500000 0.000000
22.500000 0.000000 0.000000
22.500000 1.500000 0.000000
22.500000 3.000000 0.000000
22.500000 4.500000 0.000000
24.000000 -4.500000 0.000000
24.000000 -3.000000 0.000000
24.000000 -1.500000 0.000000
24.000000 0.000000 0.000000
24.000000 1.500000 0.000000
24.000000 3.000000 0.000000
24.000000 4.500000 0.000000
25.500000 -4.500000 0.000000
25.500000 -3.000000 0.000000
25.500000 -1.500000 0.000000
25.500000 -0.000000 0.000000
25.500000 1.500000 0.000000
25.500000 3.000000 0.000000
25.500000 4.500000 0.000000
27.000000 -4.500000 0.000000
27.000000 -3.000000 0.000000
27.000000 -1.500000 0.000000
27.000000 -0.000000 0.000000
27.000000 1.500000 0.000000
27.000000 3.000000 0.000000
27.000000 4.500000 0.000000
28.500000 -4.500000 0.000000
28.500000 -3.000000 0.000000
28.500000 -1.500000 0.000000
28.500000 -0.000000 0.000000
28.500000 1.500000 0.000000
28.500000 3.000000 0.000000
28.500000 4.500000 0.000000
30.000000 -4.500000 0.000000
30.000000 -3.000000 0.000000
30.000000 -1.500000 0.000000
30.000000 -0.000000 0.000000
30.000000 1.500000 0.000000
30.000000 3.000000 0.000000
30.000000 4.500000 0.000000
31.500000 -4.500000 0.000000
31.500000 -3.000000 0.000000
31.500000 -1.500000 0.000000
31.500000 -0.000000 0.000000
31.500000 1.500000 0.000000
31.500000 3.000000 0.000000
31.500000 4.500000 0.000000
33.000000 -4.500000 0.000000
33.000000 -3.000000 0.000000
33.000000 -1.500000 0.000000
33.000000 -0.000000 0.000000
33.000000 1.500000 0.000000
33.000000 3.000000 0.000000
33.000000 4.500000 0.000000
34.500000 -4.500000 0.000000
34.500000 -3.000000 0.000000
34.500000 -1.500000 0.000000
34.500000 -0.000000 0.000000
34.500000 1.500000 0.000000
34.500000 3.000000 0.000000
34.500000 4.500000 0.000000
36.000000 -4.500000 0.000000
36.000000 -3.000000 0.000000
36.000000 -1.500000 0.000000
36.000000 -0.000000 0.000000
36.000000 1.500000 0.000000
36.000000 3.000000 0.000000
36.000000 4.500000 0.000000
37.500000 -4.500000 0.000000
37.500000 -3.000000 0.000000
37.500000 -1.500000 0.000000
37.500000 -0.000000 0.000000
37.500000 1.500000 0.000000
37.500000 3.000000 0.000000
37.500000 4.500000 0.000000
39.000000 -4.500000 0.000000
39.000000 -3.000000 0.000000
39.000000 -1.500000 0.000000
39.000000 -0.000000 0.000000
39.000000 1.500000 0.000000
39.000000 3.000000 0.000000
39.000000 4.500000 0.000000
40.500000 -4.500000 0.000000
40.500000 -3.000000 0.000000
40.500000 -1.500000 0.000000
40.500000 -0.000000 0.000000
40.500000 1.500000 0.000000
40.500000 3.000000 0.000000
40.500000 4.500000 0.000000
42.000000 -4.500000 0.000000
42.000000 -3.000000 0.000000
42.000000 -1.500000 0.000000
42.000000 -0.000000 0.000000
42.000000 1.500000 0.000000
42.000000 3.000000 0.000000
42.000000 4.500000 0.000000
43.500000 -4.500000 0.000000
43.500000 -3.000000 0.000000
43.500000 -1.500000 0.000000
43.500000 -0.000000 0.000000
43.500000 1.500000 0.000000
43.500000 3.000000 0.000000
43.500000 4.500000 0.000000
45.000000 -4.500000 0.000000
45.000000 -3.000000 0.000000
45.000000 -1.500000 0.000000
45.000000 -0.000000 0.000000
45.000000 1.500000 0.000000
45.000000 3.000000 0.000000
45.000000 4.500000 0.000000
46.500000 -4.500000 0.000000
46.500000 -3.000000 0.000000
46.500000 -1.500000 0.000000
46.500000 -0.000000 0.000000
46.500000 1.500000 0.000000
46.500000 3.000000 0.000000
46.500000 4.500000 0.000000
POLYGONS 512 2048
3 0 4 79
3 79 4 80
3 79 80 78
3 78 80 81
3 78 81 77
3 77 81 82
3 77 82 76
3 76 82 83
3 76 83 75
3 75 83 84
3 75 84 74
3 74 84 85
3 74 85 73
3 73 85 86
3 73 86 3
3 3 86 72
3 4 5 80
3 80 5 87
3 80 87 81
3 81 87 88
3 81 88 82
3 82 88 89
3 82 89 83
3 83 89 90
3 83 90 84
3 84 90 91
3 84 91 85
3 85 91 92
3 85 92 86
3 86 92 93
3 86 93 72
3 72 93 71
3 5 6 87
3 87 6 94
3 87 94 88
3 88 94 95
3 88 95 89
3 89 95 96
3 89 96 90
3 90 96 97
3 90 97 91
3 91 97 98
3 91 98 92
3 92 98 99
3 92 99 93
3 93 99 100
3 93 100 71
3 71 100 70
3 6 7 94
3 94 7 101
3 94 101 95
3 95 101 102
3 95 102 96
3 96 102 103
3 96 103 97
3 97 103 104
3 97 104 98
3 98 104 105
3 98 105 99
3 99 105 106
3 99 106 100
3 100 106 107
3 100 107 70
3 70 107 69
3 7 8 101
3 101 8 108
3 101 108 102
3 102 108 109
3 102 109 103
3 103 109 110
3 103 110 104
3 104 110 111
3 104 111 105
3 105 111 112
3 105 112 106
3 106 112 113
3 106 113 107
3 107 113 114
3 107 114 69
3 69 114 68
3 8 9 108
3 108 9 115
3 108 115 109
3 109 115 116
3 109 116 110
3 110 116 117
3 110 117 111
3 111 117 118
3 111 118 112
3 112 118 119
3 112 119 113
3 113 119 120
3 113 120 114
3 114 120 121
3 114 121 68
3 68 121 67
3 9 10 115
3 115 10 122
3 115 122 116
3 116 122 123
3 116 123 117
3 117 123 124
3 117 124 118
3 118 124 125
3 118 125 119
3 119 125 126
3 119 126 120
3 120 126 127
3 120 127 121
3 121 127 128
3 121 128 67
3 67 128 66
3 10 11 122
3 122 11 129
3 122 129 123
3 123 129 130
3 123 130 124
3 124 130 131
3 124 131 125
3 125 131 132
3 125 132 126
3 126 132 133
3 126 133 127
3 127 133 134
3 127 134 128
3 128 134 135
3 128 135 66
3 66 135 65
3 11 12 129
3 129 12 136
3 129 136 130
3 130 136 137
3 130 137 131
3 131 137 138
3 131 138 132
3 132 138 139
3 132 139 133
3 133 139 140
3 133 140 134
3 134 140 141
3 134 141 135
3 135 141 142
3 135 142 65
3 65 142 64
3 12 13 136
3 136 13 143
3 136 143 137
3 137 143 144
3 137 144 138
3 138 144 145
3 138 145 139
3 139 145 146
3 139 146 140
3 140 146 147
3 140 147 141
3 141 147 148
3 141 148 142
3 142 148 149
3 142 149 64
3 64 149 63
3 13 14 143
3 143 14 150
3 143 150 144
3 144 150 151
3 144 151 145
3 145 151 152
3 145 152 146
3 146 152 153
3 146 153 147
3 147 153 154
3 147 154 148
3 148 154 155
3 148 155 149
3 149 155 156
3 149 156 63
3 63 156 62
3 14 15 150
3 150 15 157
3 150 157 151
3 151 157 158
3 151 158 152
3 152 158 159
3 152 159 153
3 153 159 160
3 153 160 154
3 154 160 161
3 154 161 155
3 155 161 162
3 155 162 156
3 156 162 163
3 156 163 62
3 62 163 61
3 15 16 157
3 157 16 164
3 157 164 158
3 158 164 165
3 158 165 159
3 159 165 166
3 159 166 160
3 160 166 167
3 160 167 161
3 161 167 168
3 161 168 162
3 162 168 169
3 162 169 163
3 163 169 170
3 163 170 61
3 61 170 60
3 16 17 164
3 164 17 171
3 164 171 165
3 165 171 172
3 165 172 166
3 166 172 173
3 166 173 167
3 167 173 174
3 167 174 168
3 168 174 175
3 168 175 169
3 169 175 176
3 169 176 170
3 170 176 177
3 170 177 60
3 60 177 59
3 17 18 171
3 171 18 178
3 171 178 172
3 172 178 179
3 172 179 173
3 173 179 180
3 173 180 174
3 174 180 181
3 174 181 175
3 175 181 182
3 175 182 176
3 176 182 183
3 176 183 177
3 177 183 184
3 177 184 59
3 59 184 58
3 18 19 178
3 178 19 185
3 178 185 179
3 179 185 186
3 179 186 180
3 180 186 187
3 180 187 181
3 181 187 188
3 181 188 182
3 182 188 189
3 182 189 183
3 183 189 190
3 183 190 184
3 184 190 191
3 184 191 58
3 58 191 57
3 19 20 185
3 185 20 192
3 185 192 186
3 186 192 193
3 186 193 187
3 187 193 194
3 187 194 188
3 188 194 195
3 188 195 189
3 189 195 196
3 189 196 190
3 190 196 197
3 190 197 191
3 191 197 198
3 191 198 57
3 57 198 56
3 20 21 192
3 192 21 199
3 192 199 193
3 193 199 200
3 193 200 194
3 194 200 201
3 194 201 195
3 195 201 202
3 195 202 196
3 196 202 203
3 196 203 197
3 197 203 204
3 197 204 198
3 198 204 205
3 198 205 56
3 56 205 55
3 21 22 199
3 199 22 206
3 199 206 200
3 200 206 207
3 200 207 201
3 201 207 208
3 201 208 202
3 202 208 209
3 202 209 203
3 203 209 210
3 203 210 204
3 204 210 211
3 204 211 205
3 205 211 212
3 205 212 55
3 55 212 54
3 22 23 206
3 206 23 213
3 206 213 207
3 207 213 214
3 207 214 208
3 208 214 215
3 208 215 209
3 209 215 216
3 209 216 210
3 210 216 217
3 210 217 211
3 211 217 218
3 211 218 212
3 212 218 219
3 212 219 54
3 54 219 53
3 23 24 213
3 213 24 220
3 213 220 214
3 214 220 221
3 214 221 215
3 215 221 222
3 215 222 216
3 216 222 223
3 216 223 217
3 217 223 224
3 217 224 218
3 218 224 225
3 218 225 219
3 219 225 226
3 219 226 53
3 53 226 52
3 24 25 220
3 220 25 227
3 220 227 221
3 221 227 228
3 221 228 222
3 222 228 229
3 222 229 223
3 223 229 230
3 223 230 224
3 224 230 231
3 224 231 225
3 225 231 232
3 225 232 226
3 226 232 233
3 226 233 52
3 52 233 51
3 25 26 227
3 227 26 234
3 227 234 228
3 228 234 235
3 228 235 229
3 229 235 236
3 229 236 230
3 230 236 237
3 230 237 231
3 231 237 238
3 231 238 232
3 232 238 239
3 232 239 233
3 233 239 240
3 233 240 51
3 51 240 50
3 26 27 234
3 234 27 241
3 234 241 235
3 235 241 242
3 235 242 236
3 236 242 243
3 236 243 237
3 237 243 244
3 237 244 238
3 238 244 245
3 238 245 239
3 239 245 246
3 239 246 240
3 240 246 247
3 240 247 50
3 50 247 49
3 27 28 241
3 241 28 248
3 241 248 242
3 242 248 249
3 242 249 243
3 243 249 250
3 243 250 244
3 244 250 251
3 244 251 245
3 245 251 252
3 245 252 246
3 246 252 253
3 246 253 247
3 247 253 254
3 247 254 49
3 49 254 48
3 28 29 248
3 248 29 255
3 248 255 249
3 249 255 256
3 249 256 250
3 250 256 257
3 250 257 251
3 251 257 258
3 251 258 252
3 252 258 259
3 252 259 253
3 253 259 260
3 253 260 254
3 254 260 261
3 254 261 48
3 48 261 47
3 29 30 255
3 255 30 262
3 255 262 256
3 256 262 263
3 256 263 257
3 257 263 264
3 257 264 258
3 258 264 265
3 258 265 259
3 259 265 266
3 259 266 260
3 260 266 267
3 260 267 261
3 261 267 268
3 261 268 47
3 47 268 46
3 30 31 262
3 262 31 269
3 262 269 263
3 263 269 270
3 263 270 264
3 264 270 271
3 264 271 265
3 265 271 272
3 265 272 266
3 266 272 273
3 266 273 267
3 267 273 274
3 267 274 268
3 268 274 275
3 268 275 46
3 46 275 45
3 31 32 269
3 269 32 276
3 269 276 270
3 270 276 277
3 270 277 271
3 271 277 278
3 271 278 272
3 272 278 279
3 272 279 273
3 273 279 280
3 273 280 274
3 274 280 281
3 274 281 275
3 275 281 282
3 275 282 45
3 45 282 44
3 32 33 276
3 276 33 283
3 276 283 277
3 277 283 284
3 277 284 278
3 278 284 285
3 278 285 279
3 279 285 286
3 279 286 280
3 280 286 287
3 280 287 281
3 281 287 288
3 281 288 282
3 282 288 289
3 282 289 44
3 44 289 43
3 33 34 283
3 283 34 290
3 283 290 284
3 284 290 291
3 284 291 285
3 285 291 292
3 285 292 286
3 286 292 293
3 286 293 287
3 287 293 294
3 287 294 288
3 288 294 295
3 288 295 289
3 289 295 296
3 289 296 43
3 43 296 42
3 34 1 290
3 290 1 35
3 290 35 291
3 291 35 36
3 291 36 292
3 292 36 37
3 292 37 293
3 293 37 38
3 293 38 294
3 294 38 39
3 294 39 295
3 295 39 40
3 295 40 296
3 296 40 41
3 296 41 42
3 42 41 2
CELL_DATA 512
SCALARS PRESSURE float 1
LOOKUP_TABLE default
95789649723.393448
-264715201022.784302
137396889343.580841
-223165332268.119659
163835141936.536133
-214441267646.050659
175352507504.705566
-240214671102.193787
177326905057.228149
-280718822482.498291
177455426359.321991
-307236520122.809875
189054372369.965546
-276147775440.388672
221104951506.387268
-217439204504.737427
135000491492.946884
-205981225408.845398
175714592911.405640
-193373890345.246368
199982062641.176239
-182563094204.739441
201043392742.591736
-199818709575.493103
189306669906.672668
-226659924483.196320
182244704944.282135
-241379987049.397736
214931894397.982910
-218586336215.940247
268914301259.898376
-180578380439.182373
169778239848.771240
-190185034047.006042
185961938044.851257
-178384853988.202698
208090808322.917175
-163944443333.852570
208257739401.873444
-172288832192.860168
201073592451.218414
-189038153424.559906
204459466367.632324
-199118312318.372955
243057355877.051544
-186091994672.018616
291936684204.469177
-158609364672.593597
139591541319.821655
-203824498732.416138
167073222608.203247
-181085542254.466583
194468290431.688812
-163185826249.880463
197695682944.592590
-171247759468.640076
192270450871.836334
-189059337045.075317
196863970973.065491
-202145131350.208282
227570225550.989929
-194173112399.163422
263465312064.415710
-182682081389.259003
113043686966.721298
-196601166373.564056
152376936383.621552
-178685408548.702087
180864897814.337921
-167160457389.474609
182164928070.938019
-176767543593.882721
175845180005.889069
-194907968542.308136
179699210716.273865
-207815096225.620331
207029943759.913757
-197418186763.369873
233139529668.976318
-186204511348.580841
125716075625.796967
-174691704052.826599
153403727746.805450
-168680168872.820862
173381766070.239227
-161034148190.095428
174428839621.925079
-170319970828.742218
169348361050.000366
-189831020684.855774
171326940242.926544
-201243942969.249481
199684940833.438477
-184020604504.624237
231769465356.646576
-159791275744.509766
130385704557.069916
-169848468393.182129
148960450483.767578
-159393531768.835724
168127285203.579102
-149160099966.774261
170591375375.722168
-163133440537.689636
163675938554.683685
-181858569862.919861
166033063902.851929
-189428337301.862152
198686506025.863464
-171624696022.395660
238348551440.134186
-146887388343.430817
112597639181.438187
-171062511631.813263
139800698359.454742
-149627489571.191742
165499086749.270569
-140303261497.299286
165192290820.868256
-155625577740.060242
158055386811.989471
-170766307979.034058
162200253450.733307
-182770373509.395203
191702433655.198151
-173810692160.217834
225453052589.485809
-154087557710.462433
98838128907.987549
-162227466793.490662
134765595365.982803
-141261849643.162109
159075105433.497284
-136165208883.660324
157522995199.664185
-145825396866.817932
155719115154.747284
-161211817847.948517
156622327745.587738
-180791759418.975342
178244736793.624054
-172736539239.392151
211382078105.896027
-146336854106.847046
98470960350.259048
-150551960669.818634
131563574608.171341
-135368572474.387375
150160099870.627075
-129383695047.565231
152586619360.648804
-138479522581.312500
149771930368.794434
-159068364243.311737
144125863862.554260
-176687279656.230988
167248946238.541656
-164070405693.710510
211304630954.197479
-127304498831.943939
94745669181.417313
-143758573930.918610
122922502585.986267
-129141713581.458771
142822120605.720703
-123139333345.321655
148124805318.674286
-133496895992.353851
141488664851.256561
-152579127847.714294
136078795686.609177
-168324889505.707001
159795915578.941895
-157464109141.542664
208987156054.470215
-124704352992.116806
90258893046.715103
-134915096416.712708
117060967516.204636
-123453509933.796783
134151601471.512680
-120997609994.332642
137226716426.580948
-128834430732.189240
133706812363.704620
-143211282258.001984
132959998732.624344
-157818016418.714478
155355713224.479034
-152248503238.992645
197072158988.768555
-129647481087.245911
84089789065.470718
-128776659010.592026
110219413682.004364
-116433624204.640366
127339379705.268494
-111901279932.386917
132328421751.116409
-119132984647.505402
129723468555.327179
-135205737768.002701
128408401197.110291
-151651804977.519531
148649398763.501709
-146473979602.019287
185310790838.583801
-120909156498.370758
75954146929.934265
-120123949679.511414
102765885067.004684
-108455661931.396072
121974954525.771927
-105256641919.326370
127830864983.956238
-111777272955.171402
123765010124.853561
-128978433599.333099
119891900222.288849
-146944253372.641388
140098265417.997406
-138043257469.427216
183102381543.117981
-104836336603.932175
73805464086.250275
-108691435827.099075
97478372815.882156
-104125439282.923584
113038899055.783844
-100998407721.027466
120322845951.617706
-105211469680.408325
117553486656.205673
-124375477040.817673
110784716361.685150
-141880045621.486694
129402967953.673477
-133738449856.101913
176016824438.089417
-106534818027.007950
70719818639.872726
-101785061044.652908
88312608282.128464
-98246258555.422409
105132849961.297043
-93060192987.921921
115415809271.552277
-100708938798.145187
111008262090.669968
-117569636414.265274
107244936488.400757
-128885592664.478165
124908615176.149765
-126896220428.091431
160259303153.583832
-112957157208.351425
65213277877.177238
-93900568178.891663
81394657279.459702
-90944748467.630768
98196548134.656250
-89947262396.901535
103967160371.431488
-97123059917.297287
101749083209.893631
-106863359960.183578
108022875834.640656
-114902106299.252747
127796402414.794571
-112717704824.746201
153224262106.066895
-102126350843.948929
58830972036.434837
-86714812974.987656
75149014338.840820
-83705541312.520859
89811499302.799210
-83866661062.624557
96142359835.031311
-88693498848.139389
97401615273.718979
-98684598282.487000
101348773648.492889
-112350331711.148865
121272130510.576065
-106869549630.207230
147732157576.188263
-93993540248.479675
53834424590.111916
-77486711628.501495
70533985187.919922
-75324586376.531174
82530973706.951004
-77741489837.029007
89254220749.013016
-83201781495.732651
91999062621.231339
-94161990281.054459
89501772505.570114
-112110300882.539200
106850221687.468597
-108531804974.454697
135108233060.822540
-91522315421.434723
49512210117.616798
-70023784427.856766
65727634419.729172
-68420500182.044701
76777526450.929047
-69628005411.116714
82957393600.910324
-75626261376.051224
86062917515.430420
-88222716004.878342
82606874104.303772
-105086146218.339447
97441400071.374252
-101929538244.371033
128653643781.477600
-80594757409.988220
40819687638.917953
-64308926568.657661
56396472551.706024
-61010035018.993050
71722936319.018448
-59801124953.744362
80986687564.217941
-67358500757.882347
80200817432.518219
-82321899366.211075
76080068669.430466
-95428752119.480972
92565241773.168625
-90837037412.255875
127149945027.926590
-72174572056.844208
37248892311.606972
-53306640091.816277
51691889338.880821
-54973169144.919373
63158567784.675873
-59097131166.531532
69604930097.328629
-64166013718.982338
70696463872.939713
-73903917445.803741
71674149748.229126
-85574554048.069244
88556861199.506973
-85102887800.333359
117967708860.710037
-73985688718.029556
32765975049.048786
-47479410885.592133
45193067965.703156
-49194012332.340324
54579960357.886459
-51199714849.037003
62027477171.004555
-56332927450.624023
65409145970.397148
-67994887074.440727
66834620214.740433
-80166912784.836731
80353669876.043335
-80443617736.648819
104392690179.162323
-70619230212.337708
24039717082.138885
-40384928763.108818
37028737706.241875
-39967088695.631973
50326999446.124252
-42756003627.344208
58089864770.069855
-51086336435.009682
57321733914.895691
-63023943500.199524
58230066801.261322
-73029469366.764435
73624064266.635834
-71570192557.974731
98984241758.184204
-60846708069.261879
21786198397.835289
-28534171457.109032
33802161776.805264
-34141429136.896400
42186648776.425087
-40081140980.838394
47790317047.385468
-44364487825.972923
51190558522.026512
-52803368381.221199
54837323268.739449
-64736496253.515427
68020135463.458916
-66315677659.325119
91270829025.307419
-56528289614.531067
16951623855.821964
-23223666012.135281
25562486487.397926
-28232652365.516876
34444199213.705559
-30808629061.262611
43301215852.708580
-36122660407.437592
46629068526.735336
-47999998221.668335
47404097703.064857
-59167645689.496208
59603581154.129814
-59437829267.712196
82675162623.192764
-51772054340.083908
9446444332.402946
-15136904602.846277
17758201972.790955
-20441228689.511833
28411268772.475658
-26205388407.248039
36437986237.854424
-32119499340.991722
37924226759.631752
-40742815674.467979
40199978088.817467
-50677716720.630981
53945928512.676933
-52889696491.417175
75092966496.403671
-47084520949.320702
6498766676.382043
-5256455558.378953
13685740367.715221
-14870053196.884901
19715057638.150997
-21631841342.642551
27059476052.691116
-24310760723.016846
33172741585.204922
-31562333030.903027
36743633969.605644
-44163099147.835243
46548108645.368141
-47612704156.956612
65503911269.223457
-40818556022.041817
-190057480.750364
447528350.865587
4695928729.021667
-8149468828.817810
13020262942.753761
-12286437194.845127
23346241325.937954
-17100647936.912853
27335321696.290897
-27562229704.451023
27633050698.038074
-38088510846.390549
38858343354.000099
-39029842748.339035
60055514322.611015
-34357312016.511765
-3741072224.560302
11302734005.615366
-587582313.719326
-336896259.203671
7042647780.640807
-8081842976.101606
15814305578.533243
-12286692871.416006
19663917272.231709
-19607100294.764336
21579084358.985149
-30048132015.451180
32334002115.190887
-34594206636.911156
49686973949.344627
-33563457816.546070
-6612422281.096152
17686235793.951290
-6289757295.199985
4201157234.875132
-1847432412.302548
-2244651089.344059
7530862021.102497
-4697088311.751503
14879706342.770418
-12313415729.765348
17682605580.203495
-22488129462.299114
25706683850.498989
-25882272124.338650
40755446276.629662
-26302342997.431873
-18205991360.098076
17887967803.110760
-17035244282.268911
7928650384.732903
-10985504379.452587
4805756301.227814
948171458.681070
2649324318.336085
7807729261.647581
-7125819886.769164
11154552087.016502
-15243183234.655312
22554682637.989262
-13747225819.203537
38819391917.586380
-14059320277.309835
