# vtk DataFile Version 2.0
cantilever_quad4_mix
ASCII
DATASET POLYDATA
POINTS 297 float
0.000000 -6.000000 0.000000
48.000000 -6.000000 0.000000
48.000000 6.000000 0.000000
0.000000 6.000000 0.000000
1.500000 -6.000000 0.000000
3.000000 -6.000000 0.000000
4.500000 -6.000000 0.000000
6.000000 -6.000000 0.000000
7.500000 -6.000000 0.000000
9.000000 -6.000000 0.000000
10.500000 -6.000000 0.000000
12.000000 -6.000000 0.000000
13.500000 -6.000000 0.000000
15.000000 -6.000000 0.000000
16.500000 -6.000000 0.000000
18.000000 -6.000000 0.000000
19.500000 -6.000000 0.000000
21.000000 -6.000000 0.000000
22.500000 -6.000000 0.000000
24.000000 -6.000000 0.000000
25.500000 -6.000000 0.000000
27.000000 -6.000000 0.000000
28.500000 -6.000000 0.000000
30.000000 -6.000000 0.000000
31.500000 -6.000000 0.000000
33.000000 -6.000000 0.000000
34.500000 -6.000000 0.000000
36.000000 -6.000000 0.000000
37.500000 -6.000000 0.000000
39.000000 -6.000000 0.000000
40.500000 -6.000000 0.000000
42.000000 -6.000000 0.000000
43.500000 -6.000000 0.000000
45.000000 -6.000000 0.000000
46.500000 -6.000000 0.000000
48.000000 -4.500000 0.000000
48.000000 -3.000000 0.000000
48.000000 -1.500000 0.000000
48.000000 -0.000000 0.000000
48.000000 1.500000 0.000000
48.000000 3.000000 0.000000
48.000000 4.500000 0.000000
46.500000 6.000000 0.000000
45.000000 6.000000 0.000000
43.500000 6.000000 0.000000
42.000000 6.000000 0.000000
40.500000 6.000000 0.000000
39.000000 6.000000 0.000000
37.500000 6.000000 0.000000
36.000000 6.000000 0.000000
34.500000 6.000000 0.000000
33.000000 6.000000 0.000000
31.500000 6.000000 0.000000
30.000000 6.000000 0.000000
28.500000 6.000000 0.000000
27.000000 6.000000 0.000000
25.500000 6.000000 0.000000
24.000000 6.000000 0.000000
22.500000 6.000000 0.000000
21.000000 6.000000 0.000000
19.500000 6.000000 0.000000
18.000000 6.000000 0.000000
16.500000 6.000000 0.000000
15.000000 6.000000 0.000000
13.500000 6.000000 0.000000
12.000000 6.000000 0.000000
10.500000 6.000000 0.000000
9.000000 6.000000 0.000000
7.500000 6.000000 0.000000
6.000000 6.000000 0.000000
4.500000 6.000000 0.000000
3.000000 6.000000 0.000000
1.500000 6.000000 0.000000
0.000000 4.500000 0.000000
0.000000 3.000000 0.000000
0.000000 1.500000 0.000000
0.000000 0.000000 0.000000
0.000000 -1.500000 0.000000
0.000000 -3.000000 0.000000
0.000000 -4.500000 0.000000
1.500000 -4.500000 0.000000
1.500000 -3.000000 0.000000
1.500000 -1.500000 0.000000
1.500000 0.000000 0.000000
1.500000 1.500000 0.000000
1.500000 3.000000 0.000000
1.500000 4.500000 0.000000
3.000000 -4.500000 0.000000
3.000000 -3.000000 0.000000
3.000000 -1.500000 0.000000
3.000000 0.000000 0.000000
3.000000 1.500000 0.000000
3.000000 3.000000 0.000000
3.000000 4.500000 0.000000
4.500000 -4.500000 0.000000
4.500000 -3.000000 0.000000
4.500000 -1.500000 0.000000
4.500000 0.000000 0.000000
4.500000 1.500000 0.000000
4.500000 3.000000 0.000000
4.500000 4.500000 0.000000
6.000000 -4.500000 0.000000
6.000000 -3.000000 0.000000
6.000000 -1.500000 0.000000
6.000000 0.000000 0.000000
6.000000 1.500000 0.000000
6.000000 3.000000 0.000000
6.000000 4.500000 0.000000
7.500000 -4.500000 0.000000
7.500000 -3.000000 0.000000
7.500000 -1.500000 0.000000
7.500000 0.000000 0.000000
7.500000 1.500000 0.000000
7.500000 3.000000 0.000000
7.500000 4.500000 0.000000
9.000000 -4.500000 0.000000
9.000000 -3.000000 0.000000
9.000000 -1.500000 0.000000
9.000000 0.000000 0.000000
9.000000 1.500000 0.000000
9.000000 3.000000 0.000000
9.000000 4.500000 0.000000
10.500000 -4.500000 0.000000
10.500000 -3.000000 0.000000
10.500000 -1.500000 0.000000
10.500000 0.000000 0.000000
10.500000 1.500000 0.000000
10.500000 3.000000 0.000000
10.500000 4.500000 0.000000
12.000000 -4.500000 0.000000
12.000000 -3.000000 0.000000
12.000000 -1.500000 0.000000
12.000000 0.000000 0.000000
12.000000 1.500000 0.000000
12.000000 3.000000 0.000000
12.000000 4.500000 0.000000
13.500000 -4.500000 0.000000
13.500000 -3.000000 0.000000
13.500000 -1.500000 0.000000
13.500000 0.000000 0.000000
13.500000 1.500000 0.000000
13.500000 3.000000 0.000000
13.500000 4.500000 0.000000
15.000000 -4.500000 0.000000
15.000000 -3.000000 0.000000
15.000000 -1.500000 0.000000
15.000000 0.000000 0.000000
15.000000 1.500000 0.000000
15.000000 3.000000 0.000000
15.000000 4.500000 0.000000
16.500000 -4.500000 0.000000
16.500000 -3.000000 0.000000
16.500000 -1.500000 0.000000
16.500000 0.000000 0.000000
16.500000 1.500000 0.000000
16.500000 3.000000 0.000000
16.500000 4.500000 0.000000
18.000000 -4.500000 0.000000
18.000000 -3.000000 0.000000
18.000000 -1.500000 0.000000
18.000000 0.000000 0.000000
18.000000 1.500000 0.000000
18.000000 3.000000 0.000000
18.000000 4.500000 0.000000
19.500000 -4.500000 0.000000
19.500000 -3.000000 0.000000
19.500000 -1.500000 0.000000
19.500000 0.000000 0.000000
19.500000 1.500000 0.000000
19.500000 3.000000 0.000000
19.500000 4.500000 0.000000
21.000000 -4.500000 0.000000
21.000000 -3.000000 0.000000
21.000000 -1.500000 0.000000
21.000000 0.000000 0.000000
21.000000 1.500000 0.000000
21.000000 3.000000 0.000000
21.000000 4.500000 0.000000
22.500000 -4.500000 0.000000
22.500000 -3.000000 0.000000
22.500000 -1.500000 0.000000
22.500000 0.000000 0.000000
22.500000 1.500000 0.000000
22.500000 3.000000 0.000000
22.500000 4.500000 0.000000
24.000000 -4.500000 0.000000
24.000000 -3.000000 0.000000
24.000000 -1.500000 0.000000
24.000000 -0.000000 0.000000
24.000000 1.500000 0.000000
24.000000 3.000000 0.000000
24.000000 4.500000 0.000000
25.500000 -4.500000 0.000000
25.500000 -3.000000 0.000000
25.500000 -1.500000 0.000000
25.500000 -0.000000 0.000000
25.500000 1.500000 0.000000
25.500000 3.000000 0.000000
25.500000 4.500000 0.000000
27.000000 -4.500000 0.000000
27.000000 -3.000000 0.000000
27.000000 -1.500000 0.000000
27.000000 -0.000000 0.000000
27.000000 1.500000 0.000000
27.000000 3.000000 0.000000
27.000000 4.500000 0.000000
28.500000 -4.500000 0.000000
28.500000 -3.000000 0.000000
28.500000 -1.500000 0.000000
28.500000 -0.000000 0.000000
28.500000 1.500000 0.000000
28.500000 3.000000 0.000000
28.500000 4.500000 0.000000
30.000000 -4.500000 0.000000
30.000000 -3.000000 0.000000
30.000000 -1.500000 0.000000
30.000000 -0.000000 0.000000
30.000000 1.500000 0.000000
30.000000 3.000000 0.000000
30.000000 4.500000 0.000000
31.500000 -4.500000 0.000000
31.500000 -3.000000 0.000000
31.500000 -1.500000 0.000000
31.500000 -0.000000 0.000000
31.500000 1.500000 0.000000
31.500000 3.000000 0.000000
31.500000 4.500000 0.000000
33.000000 -4.500000 0.000000
33.000000 -3.000000 0.000000
33.000000 -1.500000 0.000000
33.000000 -0.000000 0.000000
33.000000 1.500000 0.000000
33.000000 3.000000 0.000000
33.000000 4.500000 0.000000
34.500000 -4.500000 0.000000
34.500000 -3.000000 0.000000
34.500000 -1.500000 0.000000
34.500000 -0.000000 0.000000
34.500000 1.500000 0.000000
34.500000 3.000000 0.000000
34.500000 4.500000 0.000000
36.000000 -4.500000 0.000000
36.000000 -3.000000 0.000000
36.000000 -1.500000 0.000000
36.000000 -0.000000 0.000000
36.000000 1.500000 0.000000
36.000000 3.000000 0.000000
36.000000 4.500000 0.000000
37.500000 -4.500000 0.000000
37.500000 -3.000000 0.000000
37.500000 -1.500000 0.000000
37.500000 -0.000000 0.000000
37.500000 1.500000 0.000000
37.500000 3.000000 0.000000
37.500000 4.500000 0.000000
39.000000 -4.500000 0.000000
39.000000 -3.000000 0.000000
39.000000 -1.500000 0.000000
39.000000 -0.000000 0.000000
39.000000 1.500000 0.000000
39.000000 3.000000 0.000000
39.000000 4.500000 0.000000
40.500000 -4.500000 0.000000
40.500000 -3.000000 0.000000
40.500000 -1.500000 0.000000
40.500000 -0.000000 0.000000
40.500000 1.500000 0.000000
40.500000 3.000000 0.000000
40.500000 4.500000 0.000000
42.000000 -4.500000 0.000000
42.000000 -3.000000 0.000000
42.000000 -1.500000 0.000000
42.000000 -0.000000 0.000000
42.000000 1.500000 0.000000
42.000000 3.000000 0.000000
42.000000 4.500000 0.000000
43.500000 -4.500000 0.000000
43.500000 -3.000000 0.000000
43.500000 -1.500000 0.000000
43.500000 -0.000000 0.000000
43.500000 1.500000 0.000000
43.500000 3.000000 0.000000
43.500000 4.500000 0.000000
45.000000 -4.500000 0.000000
45.000000 -3.000000 0.000000
45.000000 -1.500000 0.000000
45.000000 -0.000000 0.000000
45.000000 1.500000 0.000000
45.000000 3.000000 0.000000
45.000000 4.500000 0.000000
46.500000 -4.500000 0.000000
46.500000 -3.000000 0.000000
46.500000 -1.500000 0.000000
46.500000 -0.000000 0.000000
46.500000 1.500000 0.000000
46.500000 3.000000 0.000000
46.500000 4.500000 0.000000
POLYGONS 256 1280
4 0 4 80 79
4 79 80 81 78
4 78 81 82 77
4 77 82 83 76
4 76 83 84 75
4 75 84 85 74
4 74 85 86 73
4 73 86 72 3
4 4 5 87 80
4 80 87 88 81
4 81 88 89 82
4 82 89 90 83
4 83 90 91 84
4 84 91 92 85
4 85 92 93 86
4 86 93 71 72
4 5 6 94 87
4 87 94 95 88
4 88 95 96 89
4 89 96 97 90
4 90 97 98 91
4 91 98 99 92
4 92 99 100 93
4 93 100 70 71
4 6 7 101 94
4 94 101 102 95
4 95 102 103 96
4 96 103 104 97
4 97 104 105 98
4 98 105 106 99
4 99 106 107 100
4 100 107 69 70
4 7 8 108 101
4 101 108 109 102
4 102 109 110 103
4 103 110 111 104
4 104 111 112 105
4 105 112 113 106
4 106 113 114 107
4 107 114 68 69
4 8 9 115 108
4 108 115 116 109
4 109 116 117 110
4 110 117 118 111
4 111 118 119 112
4 112 119 120 113
4 113 120 121 114
4 114 121 67 68
4 9 10 122 115
4 115 122 123 116
4 116 123 124 117
4 117 124 125 118
4 118 125 126 119
4 119 126 127 120
4 120 127 128 121
4 121 128 66 67
4 10 11 129 122
4 122 129 130 123
4 123 130 131 124
4 124 131 132 125
4 125 132 133 126
4 126 133 134 127
4 127 134 135 128
4 128 135 65 66
4 11 12 136 129
4 129 136 137 130
4 130 137 138 131
4 131 138 139 132
4 132 139 140 133
4 133 140 141 134
4 134 141 142 135
4 135 142 64 65
4 12 13 143 136
4 136 143 144 137
4 137 144 145 138
4 138 145 146 139
4 139 146 147 140
4 140 147 148 141
4 141 148 149 142
4 142 149 63 64
4 13 14 150 143
4 143 150 151 144
4 144 151 152 145
4 145 152 153 146
4 146 153 154 147
4 147 154 155 148
4 148 155 156 149
4 149 156 62 63
4 14 15 157 150
4 150 157 158 151
4 151 158 159 152
4 152 159 160 153
4 153 160 161 154
4 154 161 162 155
4 155 162 163 156
4 156 163 61 62
4 15 16 164 157
4 157 164 165 158
4 158 165 166 159
4 159 166 167 160
4 160 167 168 161
4 161 168 169 162
4 162 169 170 163
4 163 170 60 61
4 16 17 171 164
4 164 171 172 165
4 165 172 173 166
4 166 173 174 167
4 167 174 175 168
4 168 175 176 169
4 169 176 177 170
4 170 177 59 60
4 17 18 178 171
4 171 178 179 172
4 172 179 180 173
4 173 180 181 174
4 174 181 182 175
4 175 182 183 176
4 176 183 184 177
4 177 184 58 59
4 18 19 185 178
4 178 185 186 179
4 179 186 187 180
4 180 187 188 181
4 181 188 189 182
4 182 189 190 183
4 183 190 191 184
4 184 191 57 58
4 19 20 192 185
4 185 192 193 186
4 186 193 194 187
4 187 194 195 188
4 188 195 196 189
4 189 196 197 190
4 190 197 198 191
4 191 198 56 57
4 20 21 199 192
4 192 199 200 193
4 193 200 201 194
4 194 201 202 195
4 195 202 203 196
4 196 203 204 197
4 197 204 205 198
4 198 205 55 56
4 21 22 206 199
4 199 206 207 200
4 200 207 208 201
4 201 208 209 202
4 202 209 210 203
4 203 210 211 204
4 204 211 212 205
4 205 212 54 55
4 22 23 213 206
4 206 213 214 207
4 207 214 215 208
4 208 215 216 209
4 209 216 217 210
4 210 217 218 211
4 211 218 219 212
4 212 219 53 54
4 23 24 220 213
4 213 220 221 214
4 214 221 222 215
4 215 222 223 216
4 216 223 224 217
4 217 224 225 218
4 218 225 226 219
4 219 226 52 53
4 24 25 227 220
4 220 227 228 221
4 221 228 229 222
4 222 229 230 223
4 223 230 231 224
4 224 231 232 225
4 225 232 233 226
4 226 233 51 52
4 25 26 234 227
4 227 234 235 228
4 228 235 236 229
4 229 236 237 230
4 230 237 238 231
4 231 238 239 232
4 232 239 240 233
4 233 240 50 51
4 26 27 241 234
4 234 241 242 235
4 235 242 243 236
4 236 243 244 237
4 237 244 245 238
4 238 245 246 239
4 239 246 247 240
4 240 247 49 50
4 27 28 248 241
4 241 248 249 242
4 242 249 250 243
4 243 250 251 244
4 244 251 252 245
4 245 252 253 246
4 246 253 254 247
4 247 254 48 49
4 28 29 255 248
4 248 255 256 249
4 249 256 257 250
4 250 257 258 251
4 251 258 259 252
4 252 259 260 253
4 253 260 261 254
4 254 261 47 48
4 29 30 262 255
4 255 262 263 256
4 256 263 264 257
4 257 264 265 258
4 258 265 266 259
4 259 266 267 260
4 260 267 268 261
4 261 268 46 47
4 30 31 269 262
4 262 269 270 263
4 263 270 271 264
4 264 271 272 265
4 265 272 273 266
4 266 273 274 267
4 267 274 275 268
4 268 275 45 46
4 31 32 276 269
4 269 276 277 270
4 270 277 278 271
4 271 278 279 272
4 272 279 280 273
4 273 280 281 274
4 274 281 282 275
4 275 282 44 45
4 32 33 283 276
4 276 283 284 277
4 277 284 285 278
4 278 285 286 279
4 279 286 287 280
4 280 287 288 281
4 281 288 289 282
4 282 289 43 44
4 33 34 290 283
4 283 290 291 284
4 284 291 292 285
4 285 292 293 286
4 286 293 294 287
4 287 294 295 288
4 288 295 296 289
4 289 296 42 43
4 34 1 35 290
4 290 35 36 291
4 291 36 37 292
4 292 37 38 293
4 293 38 39 294
4 294 39 40 295
4 295 40 41 296
4 296 41 2 42
CELL_DATA 256
SCALARS PRESSURE float 1
LOOKUP_TABLE default
-75652864301.871277
-107144190509.957001
-80362575801.487915
-98529135042.813293
-94857310658.914169
-67331651304.579651
-162943312116.013977
36399088905.808678
-25539630261.024979
214493219170.238708
-44866693138.913338
195107087875.420074
-23749909872.040451
127090916074.613510
221040273211.034454
-162622079005.274780
-11849237252.874510
-197410129635.326508
88686421727.659637
-242180883484.607605
182844432717.061340
-252820892764.003662
-224028854331.205780
166400903349.058014
168315864296.737793
-25581413356.208008
133687490190.731644
44701113594.725418
-131663768924.360809
234482843406.717102
212397967659.231079
-133287144922.294174
-62867109380.742805
33621645222.665874
-242117914119.573059
125675809417.405960
-13309660960.139078
-101136756333.945679
-180386945930.949738
123292327124.548141
-77067388613.733032
97174494094.847488
132212761616.846176
-116526450732.448044
80045778718.641541
21623351132.018841
127419746485.822220
-211673231240.162201
54064208512.239769
-138575126960.412689
31284639690.149738
-12614641119.665169
13569066936.794344
-154867438420.761719
97116566585.860657
113476914451.755463
135511881348.644531
-47639752118.420403
58776009333.113564
-92012848204.815247
105442755833.920532
68941131558.491959
-95792908667.930588
-80211883461.967438
3378499535.082846
-66011156031.987984
75888297042.174103
-6509353856.860440
-126521453163.279327
75259936288.931458
-79780998059.811813
237450092816.893372
33381076343.572613
63609584258.354942
-167420059836.048889
219506610354.592804
-76808671140.219620
108168070846.471069
-149292326642.636108
73097587993.445206
-136980913842.781235
112860401750.665192
-40340575467.532295
-41385942093.382599
-109151099094.380661
59128550197.522942
14151082530.939035
-31462512980.729637
3763295691.189604
-63950259874.810768
56604883879.297661
15237800764.485470
106874822145.476974
-83190975617.981476
73448113668.234711
-67268989263.099556
24712807566.454594
30293545711.432743
-29777635713.244671
-44009594270.383202
-10051408972.527859
-16788174354.281904
-1900857349.250912
24514241688.444355
13870101821.814915
-59418461740.750671
53259947097.150505
-6809859066.931307
30539892991.483356
18038345342.323235
-1742779703.932189
-45961292508.076630
40002408522.878441
-7371400538.498030
28683906431.235016
-26764600916.816235
-15099209979.480230
-33737046362.777264
15619258539.913986
62742283252.754677
6525760210.323195
-4635853117.318406
-74926228112.956879
55539270810.861526
28132869719.939686
9771957021.813864
7924764847.313621
-114292666989.819992
-5296196404.109196
-2903282370.454719
122706901080.743088
-110463208964.304886
-19873697814.121456
-10955223846.815950
21310039840.888184
99582125118.779556
96782629462.434647
-122687642156.026138
28514729379.660381
10770552276.669090
59467535206.769814
13935987304.328793
-128576403434.922699
120447000300.525436
74273310388.646652
-8932754363.946585
-3231949985.828654
-19234181939.803074
-52900195145.215637
106025663845.019684
-77499123706.508896
42340737623.712410
-43528524409.379021
21176517746.455513
-18387583132.868660
98544065761.974808
-81669371483.163651
-5051562642.434021
36516266933.587967
-22153719296.385189
-27787177479.214424
55435358577.706154
-47599045146.024467
-47933896231.244720
69038832980.089828
-24458623536.571053
13712839095.230068
-37969391872.152519
-10866844395.568001
-43439535051.650299
58301401431.978500
-18609242817.439442
13851491350.814592
-32061223581.135796
24934798376.508945
4062948962.934890
65057690219.618515
-35267605107.739960
28437775499.972752
-27954365670.087437
9496506909.198177
3222012364.214567
4517661877.892313
-24836699352.703175
2837897910.897598
-11772624627.702765
-8539517444.058743
10300817324.478928
9648495782.438160
-13569613223.075399
4009025135.041367
12874351455.927700
18028009216.079906
8672903527.054508
6123372127.803457
-11372751772.956665
-8364223757.221498
13970370367.562897
-15999261330.503935
19377209339.963703
-32562529945.217365
-4735706757.187118
951648646.351919
15431486674.389946
-11733879767.495947
24850138567.294270
-38995046427.516380
41116260208.329346
26462595392.216267
17482985548.149220
-32627964440.295723
27120841654.035366
-33703280052.502312
20995653888.466572
-3096292257.061716
-11641593347.995193
-52218928980.417191
28563908165.045113
-3454030960.670467
-3183175491.337729
12385791253.870724
-10323044670.913321
5262961249.380721
11047788194.306053
37958419052.910728
-46381897636.564529
3543102002.856615
5477847212.816648
-5343055885.039323
8586516321.784191
-17477654225.322323
17206638617.415852
-75419109261.452377
78701133149.303711
-3677808588.460286
3782961665.517548
-20426835399.656265
30497329621.445507
-28964948699.233944
22769847563.588665
114757719940.473465
-63899117037.539886
-41637854971.995033
43780324512.364441
-41768963387.553986
21085115727.554810
-2582818258.989049
-1926209893.488797
19685997401.641911
-72721687079.085190
106429777991.681778
-50925904214.111885
45354989109.947769
-23064789005.064175
-3842608184.581175
22194701737.752518
