# vtk DataFile Version 2.0
cantilever_tri6_mix
ASCII
DATASET POLYDATA
POINTS 300 float
0.000000 -6.000000 0.000000
48.000000 -6.000000 0.000000
48.000000 6.000000 0.000000
0.000000 6.000000 0.000000
1.500000 -6.000000 0.000000
3.000000 -6.000000 0.000000
4.500000 -6.000000 0.000000
6.000000 -6.000000 0.000000
7.500000 -6.000000 0.000000
9.000000 -6.000000 0.000000
10.500000 -6.000000 0.000000
12.000000 -6.000000 0.000000
13.500000 -6.000000 0.000000
15.000000 -6.000000 0.000000
16.500000 -6.000000 0.000000
18.000000 -6.000000 0.000000
19.500000 -6.000000 0.000000
21.000000 -6.000000 0.000000
22.500000 -6.000000 0.000000
24.000000 -6.000000 0.000000
25.500000 -6.000000 0.000000
27.000000 -6.000000 0.000000
28.500000 -6.000000 0.000000
30.000000 -6.000000 0.000000
31.500000 -6.000000 0.000000
33.000000 -6.000000 0.000000
34.500000 -6.000000 0.000000
36.000000 -6.000000 0.000000
37.500000 -6.000000 0.000000
39.000000 -6.000000 0.000000
40.500000 -6.000000 0.000000
42.000000 -6.000000 0.000000
43.500000 -6.000000 0.000000
45.000000 -6.000000 0.000000
46.500000 -6.000000 0.000000
48.000000 -4.500000 0.000000
48.000000 -3.000000 0.000000
48.000000 -1.500000 0.000000
48.000000 -0.000000 0.000000
48.000000 1.500000 0.000000
48.000000 3.000000 0.000000
48.000000 4.500000 0.000000
46.500000 6.000000 0.000000
45.000000 6.000000 0.000000
43.500000 6.000000 0.000000
42.000000 6.000000 0.000000
40.500000 6.000000 0.000000
39.000000 6.000000 0.000000
37.500000 6.000000 0.000000
36.000000 6.000000 0.000000
34.500000 6.000000 0.000000
33.000000 6.000000 0.000000
31.500000 6.000000 0.000000
30.000000 6.000000 0.000000
28.500000 6.000000 0.000000
27.000000 6.000000 0.000000
25.500000 6.000000 0.000000
24.000000 6.000000 0.000000
22.500000 6.000000 0.000000
21.000000 6.000000 0.000000
19.500000 6.000000 0.000000
18.000000 6.000000 0.000000
16.500000 6.000000 0.000000
15.000000 6.000000 0.000000
13.500000 6.000000 0.000000
12.000000 6.000000 0.000000
10.500000 6.000000 0.000000
9.000000 6.000000 0.000000
7.500000 6.000000 0.000000
6.000000 6.000000 0.000000
4.500000 6.000000 0.000000
3.000000 6.000000 0.000000
1.500000 6.000000 0.000000
0.000000 4.500000 0.000000
0.000000 3.000000 0.000000
0.000000 1.500000 0.000000
0.000000 0.000000 0.000000
0.000000 -1.500000 0.000000
0.000000 -3.000000 0.000000
0.000000 -4.500000 0.000000
20.531958 3.261135 0.000000
34.319484 -0.039192 0.000000
42.042389 1.558354 0.000000
28.051092 4.522616 0.000000
4.583198 4.589459 0.000000
31.072964 -3.023404 0.000000
13.055295 2.156501 0.000000
10.489752 3.455409 0.000000
19.576365 2.025105 0.000000
15.531762 0.692909 0.000000
30.313607 3.033888 0.000000
16.565542 1.698188 0.000000
17.842294 -3.102655 0.000000
15.042151 -3.239006 0.000000
8.050222 -1.836168 0.000000
36.605369 -4.498806 0.000000
42.823492 3.047859 0.000000
10.876134 -3.205883 0.000000
27.139305 3.044517 0.000000
11.334298 2.221446 0.000000
9.751937 -0.432160 0.000000
41.033498 -1.481231 0.000000
18.851431 3.280372 0.000000
24.129342 -4.705711 0.000000
28.714368 -4.529196 0.000000
6.654706 -1.869602 0.000000
3.929699 -1.556497 0.000000
1.303424 -4.512148 0.000000
29.514261 -3.022465 0.000000
36.231066 3.012108 0.000000
6.663696 -3.263987 0.000000
13.771973 -1.849482 0.000000
1.321012 0.006281 0.000000
19.717211 -1.411847 0.000000
17.336890 3.106993 0.000000
23.879343 3.163242 0.000000
23.059579 -2.151699 0.000000
46.275672 3.069793 0.000000
33.951623 1.441795 0.000000
43.144722 0.088526 0.000000
9.441860 -1.829405 0.000000
9.487106 -4.594203 0.000000
46.405146 0.085118 0.000000
19.734953 4.622323 0.000000
39.493905 3.017164 0.000000
11.383285 4.652108 0.000000
37.122533 1.516200 0.000000
16.847966 -1.858336 0.000000
22.986720 1.807921 0.000000
12.246064 3.415106 0.000000
10.851409 -1.818081 0.000000
5.431309 3.194802 0.000000
38.629573 0.018020 0.000000
13.724202 -4.619194 0.000000
2.569540 3.020552 0.000000
3.018368 4.536285 0.000000
24.217480 -1.207129 0.000000
1.340140 -1.499612 0.000000
44.615412 -4.477460 0.000000
32.389418 1.432539 0.000000
38.173438 -4.494541 0.000000
2.990095 1.533429 0.000000
46.613778 4.541388 0.000000
13.998162 3.312791 0.000000
37.365213 -2.992407 0.000000
31.898118 -1.535720 0.000000
14.838576 4.603771 0.000000
42.976930 -4.478159 0.000000
39.547255 -1.503102 0.000000
35.036445 -4.513063 0.000000
27.963769 -3.024389 0.000000
16.581479 -4.636274 0.000000
1.282520 3.012533 0.000000
25.512483 3.090317 0.000000
10.479154 0.937596 0.000000
31.879953 -4.522928 0.000000
30.362886 -1.508784 0.000000
6.776408 -0.478168 0.000000
46.696513 1.578616 0.000000
27.114400 -4.513988 0.000000
40.391970 1.528922 0.000000
28.847284 -1.509797 0.000000
2.647726 -1.427391 0.000000
8.840373 0.926518 0.000000
22.522139 -4.664827 0.000000
12.272627 -3.206152 0.000000
12.312328 -4.602887 0.000000
18.191958 1.618620 0.000000
41.888296 4.520822 0.000000
41.359125 -4.491384 0.000000
12.142206 0.929621 0.000000
46.618022 -2.968871 0.000000
46.723094 -1.451670 0.000000
8.067362 -4.593186 0.000000
18.126821 -1.283901 0.000000
26.408835 -2.945556 0.000000
25.787360 -1.377858 0.000000
23.633307 0.320444 0.000000
20.946321 -4.596263 0.000000
9.602511 4.655337 0.000000
22.514580 -0.784206 0.000000
12.927894 -0.429317 0.000000
32.837093 -0.053769 0.000000
11.323549 -0.414956 0.000000
43.972302 -1.419157 0.000000
43.532297 4.524827 0.000000
21.976125 -3.262171 0.000000
24.742823 4.551904 0.000000
4.521185 1.628033 0.000000
16.432764 -3.270444 0.000000
37.213200 0.035663 0.000000
16.472785 4.582405 0.000000
44.778099 0.105087 0.000000
13.134765 4.638234 0.000000
19.006998 0.124646 0.000000
28.743927 3.047178 0.000000
34.977817 -1.531362 0.000000
29.814031 0.009968 0.000000
20.246712 0.865165 0.000000
5.281269 -1.237041 0.000000
45.162085 -2.954383 0.000000
9.631458 2.225733 0.000000
3.915318 -3.059343 0.000000
29.777047 4.523694 0.000000
33.438810 -1.551258 0.000000
22.225804 3.218498 0.000000
21.306506 1.954985 0.000000
36.858036 4.492062 0.000000
34.671332 2.992710 0.000000
37.852298 3.015950 0.000000
2.578718 -4.468076 0.000000
42.505865 -1.457455 0.000000
7.912817 2.168310 0.000000
40.512481 -2.993969 0.000000
27.328988 -1.484512 0.000000
42.081867 -2.980557 0.000000
30.847575 1.493293 0.000000
14.555607 -0.489495 0.000000
28.310474 0.014390 0.000000
5.559021 0.364055 0.000000
43.643251 -2.951757 0.000000
4.069141 0.023497 0.000000
35.769306 0.013306 0.000000
43.675000 1.582668 0.000000
21.978936 0.619131 0.000000
18.065885 4.630808 0.000000
17.997451 -4.549634 0.000000
39.759159 -4.487381 0.000000
19.408589 -4.433058 0.000000
35.128054 4.486516 0.000000
3.894054 -4.526219 0.000000
7.221585 0.888831 0.000000
13.660683 -3.228204 0.000000
31.796484 2.973102 0.000000
38.552102 4.502674 0.000000
26.203035 1.585732 0.000000
5.255245 -2.848231 0.000000
7.862900 4.628457 0.000000
12.294638 -1.818430 0.000000
45.400192 -1.428830 0.000000
23.615910 -3.472221 0.000000
33.203559 2.940586 0.000000
20.828076 -0.389933 0.000000
14.804376 2.001902 0.000000
38.935999 -2.999837 0.000000
6.640092 -4.619359 0.000000
44.535361 3.064114 0.000000
40.070428 0.024723 0.000000
1.323921 -3.003456 0.000000
3.960389 3.070199 0.000000
46.294793 -4.483640 0.000000
15.144440 -4.631634 0.000000
8.067107 -3.217158 0.000000
30.300953 -4.523439 0.000000
34.221229 -3.036764 0.000000
31.325274 -0.023272 0.000000
33.361432 4.465379 0.000000
32.647095 -3.040289 0.000000
2.666141 0.046918 0.000000
29.317815 1.532417 0.000000
38.048842 -1.493935 0.000000
15.301680 -1.857468 0.000000
36.518407 -1.489802 0.000000
15.719211 3.173350 0.000000
41.576599 0.055308 0.000000
38.746797 1.513295 0.000000
35.525558 1.491047 0.000000
35.793357 -3.012173 0.000000
2.617234 -2.945578 0.000000
1.473546 1.507141 0.000000
26.788055 0.054246 0.000000
20.409152 -3.081921 0.000000
26.390892 4.522058 0.000000
19.009968 -2.790856 0.000000
24.839038 -2.773335 0.000000
6.207241 4.636409 0.000000
45.248686 1.598185 0.000000
41.149939 3.031258 0.000000
31.566479 4.494669 0.000000
24.598507 1.686549 0.000000
23.083321 4.581648 0.000000
27.779582 1.536027 0.000000
8.741217 3.417059 0.000000
7.007266 3.266952 0.000000
21.338723 -1.827841 0.000000
21.414081 4.596143 0.000000
8.238474 -0.447042 0.000000
17.383384 0.222313 0.000000
10.902268 -4.595881 0.000000
13.820185 0.864468 0.000000
25.225266 0.166015 0.000000
6.131082 1.866145 0.000000
40.224436 4.510478 0.000000
16.236641 -0.560411 0.000000
5.246132 -4.416168 0.000000
45.124749 4.529573 0.000000
1.494288 4.524323 0.000000
9.472979 -3.213591 0.000000
33.459995 -4.523422 0.000000
25.529656 -4.372564 0.000000
POLYGONS 518 2072
3 0 4 107
3 5 6 230
3 4 5 210
3 107 78 79
3 107 79 0
3 230 202 210
3 210 107 4
3 294 230 6
3 210 248 107
3 5 230 210
3 230 294 202
3 6 7 294
3 7 8 245
3 9 10 121
3 8 9 173
3 110 294 245
3 110 245 173
3 297 252 173
3 173 252 110
3 173 245 8
3 297 173 121
3 9 121 173
3 110 252 105
3 121 288 97
3 245 294 7
3 236 294 110
3 77 78 248
3 78 107 248
3 268 202 106
3 268 248 210
3 268 210 202
3 137 248 268
3 137 112 77
3 77 248 137
3 268 106 162
3 162 137 268
3 106 236 199
3 221 162 106
3 106 202 236
3 162 112 137
3 294 236 202
3 105 94 157
3 105 252 94
3 130 120 297
3 120 94 252
3 97 297 121
3 130 297 97
3 199 236 105
3 94 120 286
3 221 106 199
3 199 105 157
3 120 100 286
3 157 94 286
3 100 130 183
3 163 286 100
3 130 100 120
3 157 286 231
3 97 238 130
3 236 110 105
3 297 120 252
3 199 157 219
3 121 10 288
3 11 12 166
3 13 14 251
3 12 13 133
3 165 288 166
3 288 11 166
3 93 133 251
3 166 12 133
3 151 189 251
3 166 133 232
3 13 251 133
3 251 189 93
3 251 14 151
3 11 288 10
3 226 15 16
3 17 18 164
3 164 240 186
3 16 17 178
3 164 178 17
3 151 226 92
3 151 15 226
3 271 228 178
3 228 226 16
3 186 178 164
3 226 228 273
3 178 228 16
3 151 92 189
3 284 186 116
3 15 151 14
3 186 271 178
3 238 165 232
3 232 165 166
3 232 93 111
3 93 189 261
3 232 133 93
3 261 111 93
3 183 238 181
3 130 238 183
3 181 111 217
3 111 181 238
3 217 111 261
3 289 181 217
3 238 232 111
3 170 183 181
3 261 293 217
3 97 165 238
3 174 127 92
3 261 189 127
3 113 273 271
3 273 92 226
3 271 186 284
3 174 92 273
3 189 92 127
3 284 113 271
3 287 293 174
3 174 293 127
3 284 242 113
3 242 284 180
3 242 180 224
3 174 113 194
3 174 273 113
3 217 293 89
3 284 116 180
3 127 293 261
3 271 273 228
3 242 194 113
3 224 180 177
3 97 288 165
3 154 100 183
3 75 76 112
3 75 112 269
3 112 162 258
3 76 77 112
3 269 112 258
3 74 152 73
3 74 75 152
3 269 141 134
3 141 269 258
3 249 134 141
3 269 134 152
3 75 269 152
3 152 134 296
3 258 221 141
3 188 221 219
3 286 163 231
3 231 163 212
3 231 219 157
3 100 154 163
3 291 219 231
3 131 188 291
3 188 219 291
3 163 201 212
3 212 291 231
3 87 201 99
3 283 291 212
3 201 163 154
3 141 188 249
3 221 199 219
3 221 188 141
3 162 221 258
3 282 212 201
3 73 296 3
3 73 152 296
3 135 249 84
3 135 296 134
3 249 135 134
3 296 135 71
3 3 296 72
3 135 70 71
3 71 72 296
3 70 84 69
3 70 135 84
3 249 131 84
3 275 131 283
3 131 249 188
3 179 237 282
3 282 237 283
3 282 283 212
3 179 282 87
3 291 283 131
3 275 283 237
3 69 275 68
3 69 84 275
3 237 67 68
3 68 275 237
3 66 67 179
3 179 67 237
3 179 87 125
3 275 84 131
3 87 282 201
3 201 154 99
3 86 170 289
3 289 217 89
3 289 89 243
3 91 89 287
3 170 181 289
3 91 243 89
3 129 99 86
3 99 170 86
3 91 263 243
3 263 91 114
3 191 263 114
3 86 243 143
3 289 243 86
3 263 143 243
3 91 167 114
3 170 99 154
3 287 167 91
3 167 287 194
3 242 198 194
3 198 242 224
3 88 194 198
3 167 194 88
3 287 89 293
3 206 198 224
3 167 88 102
3 80 88 206
3 206 128 205
3 206 88 198
3 280 285 205
3 206 205 80
3 224 128 206
3 80 205 285
3 128 224 177
3 167 102 114
3 154 183 170
3 80 102 88
3 129 193 125
3 193 129 143
3 143 146 193
3 143 263 146
3 129 86 143
3 193 146 64
3 66 125 65
3 66 179 125
3 65 125 193
3 65 193 64
3 146 63 64
3 146 191 63
3 125 87 129
3 191 225 62
3 191 114 225
3 80 123 102
3 123 80 285
3 123 285 59
3 102 123 225
3 263 191 146
3 225 123 60
3 61 62 225
3 59 60 123
3 58 59 285
3 61 225 60
3 58 285 280
3 191 62 63
3 102 225 114
3 205 128 115
3 87 99 129
3 174 194 287
3 164 18 19
3 19 20 103
3 21 22 159
3 20 21 299
3 274 240 103
3 240 164 103
3 159 175 299
3 299 103 20
3 299 21 159
3 103 299 274
3 22 104 159
3 104 150 159
3 22 23 104
3 240 116 186
3 23 24 253
3 25 26 298
3 24 25 155
3 85 253 155
3 253 24 155
3 257 298 254
3 298 257 155
3 149 254 298
3 257 254 204
3 25 298 155
3 104 253 108
3 254 267 196
3 23 253 104
3 85 155 257
3 136 116 274
3 274 116 240
3 176 274 175
3 150 175 159
3 274 299 175
3 214 175 150
3 290 136 176
3 176 136 274
3 214 161 218
3 161 214 150
3 218 161 197
3 176 214 270
3 176 175 214
3 218 270 214
3 150 108 161
3 136 177 180
3 156 108 85
3 108 150 104
3 182 145 204
3 145 85 257
3 145 257 204
3 81 204 196
3 254 196 204
3 156 85 145
3 197 156 255
3 197 161 156
3 139 255 182
3 255 156 145
3 255 145 182
3 216 197 255
3 204 81 182
3 182 81 118
3 196 222 81
3 156 161 108
3 253 85 108
3 259 218 197
3 149 298 26
3 164 19 103
3 27 28 95
3 29 30 227
3 28 29 140
3 262 196 267
3 267 149 95
3 144 95 140
3 95 149 27
3 95 28 140
3 95 144 267
3 29 227 140
3 227 244 140
3 30 169 227
3 27 149 26
3 31 32 147
3 33 34 250
3 34 1 35
3 32 33 138
3 213 227 169
3 169 31 147
3 33 250 138
3 147 32 138
3 200 138 250
3 220 147 138
3 35 250 34
3 215 169 147
3 31 169 30
3 171 250 35
3 260 144 244
3 244 144 140
3 148 244 213
3 213 169 215
3 227 213 244
3 101 213 215
3 190 222 262
3 222 196 262
3 132 260 148
3 260 262 144
3 101 148 213
3 262 260 190
3 244 148 260
3 101 247 148
3 215 211 101
3 144 262 267
3 184 220 200
3 215 147 220
3 172 171 36
3 171 200 250
3 200 171 239
3 200 220 138
3 36 37 172
3 119 211 184
3 211 220 184
3 122 239 172
3 184 200 239
3 38 172 37
3 184 239 192
3 171 172 239
3 264 101 211
3 220 211 215
3 35 36 171
3 122 172 38
3 267 254 149
3 81 222 266
3 279 177 290
3 290 177 136
3 290 270 235
3 218 259 281
3 290 176 270
3 281 270 218
3 153 279 235
3 235 279 290
3 98 281 195
3 281 98 235
3 195 281 259
3 98 195 83
3 235 270 281
3 153 235 98
3 259 90 195
3 279 115 128
3 233 216 139
3 259 197 216
3 241 139 118
3 266 118 81
3 139 182 118
3 208 118 266
3 278 90 233
3 233 90 216
3 118 208 241
3 208 266 109
3 208 256 241
3 233 241 256
3 233 139 241
3 195 90 203
3 266 126 109
3 216 90 259
3 216 255 139
3 109 229 208
3 187 115 153
3 153 115 279
3 272 83 55
3 272 153 98
3 83 272 98
3 187 153 272
3 280 57 58
3 57 280 187
3 272 56 187
3 56 272 55
3 187 56 57
3 280 115 187
3 83 54 55
3 280 205 115
3 53 54 203
3 203 54 83
3 51 278 256
3 83 195 203
3 278 233 256
3 203 278 53
3 278 203 90
3 50 256 229
3 52 53 278
3 50 51 256
3 49 50 229
3 52 278 51
3 49 229 207
3 208 229 256
3 229 109 207
3 177 279 128
3 126 190 132
3 126 222 190
3 265 247 160
3 247 265 132
3 132 148 247
3 126 132 265
3 209 207 109
3 126 265 209
3 124 160 277
3 209 265 124
3 82 277 160
3 209 124 234
3 265 160 124
3 292 124 277
3 160 247 264
3 209 109 126
3 82 264 119
3 264 211 119
3 276 192 122
3 192 119 184
3 158 38 39
3 119 192 223
3 247 101 264
3 38 158 122
3 82 223 96
3 82 119 223
3 117 276 158
3 276 223 192
3 40 158 39
3 223 276 246
3 158 276 122
3 82 96 277
3 264 82 160
3 192 239 122
3 40 117 158
3 207 234 48
3 207 209 234
3 277 168 292
3 292 234 124
3 168 277 96
3 234 292 47
3 48 234 47
3 46 168 45
3 46 47 292
3 185 45 168
3 168 46 292
3 168 96 185
3 207 48 49
3 185 246 295
3 246 185 96
3 142 295 117
3 117 295 246
3 142 40 41
3 117 40 142
3 96 223 246
3 185 295 43
3 44 185 43
3 42 142 2
3 42 43 295
3 2 142 41
3 142 42 295
3 185 44 45
3 276 117 246
3 266 222 126
3 260 132 190
3 180 116 136
POINT_DATA 300
SCALARS P float 1
LOOKUP_TABLE default
-1834.177959
-1598.467792
-109.500628
-101875.199766
-13207.758224
2585.707358
-3637.910820
-3290.857652
1402.322442
-1985.558913
818.690594
328.198996
-536.799675
1775.530872
-1720.282169
2518.260966
-718.721503
1183.401053
-369.702794
26.441840
1153.574173
-1189.424806
1245.150025
-1244.357804
678.693131
-757.975773
169.022601
-518.573155
85.480719
-649.126494
241.708495
-933.220414
634.948193
-1325.178380
1124.518288
1103.853310
-1282.975396
1019.133738
-1094.131708
723.677594
-947.947219
-203.686292
-866.327159
-250.849100
30.997547
-1500.164395
520.919293
-1724.866016
115.639539
-1328.196651
-398.632771
-1120.072016
-538.824252
-1309.425014
-345.825771
-1873.485464
35.659055
-2665.606278
378.741838
-3172.632112
-191.468995
-1490.935588
-1645.568836
-3105.459005
1830.694484
-10705.118282
14101.511388
-29476.843127
40495.924483
-61122.714811
76527.112879
-94238.112160
103069.802553
95504.238493
-113094.411262
70132.752429
-57332.858611
28865.870807
-6841.975906
-3194.357356
-4061.681078
-2000.998823
726.021832
976.961603
-51264.236040
-152.927231
-2923.421446
-10900.525631
-8468.459341
-2977.617496
1165.284076
-2705.926356
11189.898990
896.631959
-13174.207368
802.545527
-1384.778986
13182.259261
369.412215
6388.501579
-1706.650552
872.452226
5415.314378
-1088.006385
385.015560
12800.690911
23713.963374
35503.796723
-1098.135985
176.471875
-18360.535323
-8507.494301
28615.247992
1637.308245
-8013.463903
-672.489561
1506.347054
-789.836395
-362.141142
-1552.068161
17628.669710
11111.188382
-384.287825
732.832865
-826.827291
-7198.453673
-318.853824
-7186.990264
-2050.268804
2982.498398
-14259.943052
-2023.183591
369.950361
-500.389170
-60123.520371
69942.998110
-754.771552
10516.026130
981.148748
1324.031982
712.687864
28455.347509
1525.030316
-7778.835391
-815.280469
1627.800000
-4074.476564
28.520645
510.334694
479.312398
226.247409
4604.335125
100013.791512
-2281.463496
-3229.742084
213.752839
-431.548235
5911.176196
889.472366
844.094671
37.169869
2534.286355
-21577.152782
4863.936402
3405.235546
-9038.142439
5548.993082
8702.003504
639.501486
870.422991
-860.341575
372.087074
354.465308
-7645.839890
7516.339888
-490.997052
2992.563752
4568.719924
-2056.872646
15606.362402
366.092532
-2360.972367
1058.289153
2936.113532
1281.996085
658.515332
-3615.604546
1319.704894
-16540.603313
-5284.807421
-1592.164685
5299.702476
238.285862
7998.516303
-8312.344365
-2581.969224
1112.225834
2160.992859
5423.641205
-20107.958081
-329.930688
-2638.390946
-30289.529217
-243.638874
206.185328
-1487.455142
6401.278083
-268.006495
-2364.907323
-1193.471479
-23461.508362
-72.017518
1006.562829
-925.374795
-1425.750026
-18.765351
207.446992
2133.905131
-4205.348033
4240.908467
-679.668682
3111.419897
466.541324
900.100563
-6684.238544
-2739.955986
-4520.962795
460.002853
3891.360509
961.379671
22022.807879
-6820.988591
3901.004428
-3052.429890
1068.959015
-255.788173
16996.275215
-22335.377288
12371.585121
-482.896929
1643.611585
1433.920718
1721.106001
5760.483426
-156.601226
13432.541619
199.309280
-1652.142841
-31617.757034
20922.632212
-514.586023
-190.231986
15896.346423
1547.625637
-626.084328
-2955.687798
-168.306296
-639.876291
-11752.084725
580.471716
805.212750
7616.237130
485.277321
2625.673102
546.389959
1476.085846
1603.972105
-300.727961
32489.968283
-46541.052650
3460.737936
6201.405197
-395.981083
-11464.877132
-1359.016853
34954.770048
-466.013822
-214.974857
809.413378
2634.235332
-315.070965
1014.760813
6541.895717
-8539.760431
-749.189490
1583.296847
-2820.435943
353.817586
-5899.359475
39.650034
-5726.169613
7119.762004
-141.339228
-339.724029
-6300.399389
-678.914162
-92939.815679
-17335.117962
1302.505831
1406.218755
