# vtk DataFile Version 2.0
cantilever_Q4P1_mix
ASCII
DATASET POLYDATA
POINTS 4257 float
0.000000 -6.000000 0.000000
48.000000 -6.000000 0.000000
48.000000 6.000000 0.000000
0.000000 6.000000 0.000000
0.375000 -6.000000 0.000000
0.750000 -6.000000 0.000000
1.125000 -6.000000 0.000000
1.500000 -6.000000 0.000000
1.875000 -6.000000 0.000000
2.250000 -6.000000 0.000000
2.625000 -6.000000 0.000000
3.000000 -6.000000 0.000000
3.375000 -6.000000 0.000000
3.750000 -6.000000 0.000000
4.125000 -6.000000 0.000000
4.500000 -6.000000 0.000000
4.875000 -6.000000 0.000000
5.250000 -6.000000 0.000000
5.625000 -6.000000 0.000000
6.000000 -6.000000 0.000000
6.375000 -6.000000 0.000000
6.750000 -6.000000 0.000000
7.125000 -6.000000 0.000000
7.500000 -6.000000 0.000000
7.875000 -6.000000 0.000000
8.250000 -6.000000 0.000000
8.625000 -6.000000 0.000000
9.000000 -6.000000 0.000000
9.375000 -6.000000 0.000000
9.750000 -6.000000 0.000000
10.125000 -6.000000 0.000000
10.500000 -6.000000 0.000000
10.875000 -6.000000 0.000000
11.250000 -6.000000 0.000000
11.625000 -6.000000 0.000000
12.000000 -6.000000 0.000000
12.375000 -6.000000 0.000000
12.750000 -6.000000 0.000000
13.125000 -6.000000 0.000000
13.500000 -6.000000 0.000000
13.875000 -6.000000 0.000000
14.250000 -6.000000 0.000000
14.625000 -6.000000 0.000000
15.000000 -6.000000 0.000000
15.375000 -6.000000 0.000000
15.750000 -6.000000 0.000000
16.125000 -6.000000 0.000000
16.500000 -6.000000 0.000000
16.875000 -6.000000 0.000000
17.250000 -6.000000 0.000000
17.625000 -6.000000 0.000000
18.000000 -6.000000 0.000000
18.375000 -6.000000 0.000000
18.750000 -6.000000 0.000000
19.125000 -6.000000 0.000000
19.500000 -6.000000 0.000000
19.875000 -6.000000 0.000000
20.250000 -6.000000 0.000000
20.625000 -6.000000 0.000000
21.000000 -6.000000 0.000000
21.375000 -6.000000 0.000000
21.750000 -6.000000 0.000000
22.125000 -6.000000 0.000000
22.500000 -6.000000 0.000000
22.875000 -6.000000 0.000000
23.250000 -6.000000 0.000000
23.625000 -6.000000 0.000000
24.000000 -6.000000 0.000000
24.375000 -6.000000 0.000000
24.750000 -6.000000 0.000000
25.125000 -6.000000 0.000000
25.500000 -6.000000 0.000000
25.875000 -6.000000 0.000000
26.250000 -6.000000 0.000000
26.625000 -6.000000 0.000000
27.000000 -6.000000 0.000000
27.375000 -6.000000 0.000000
27.750000 -6.000000 0.000000
28.125000 -6.000000 0.000000
28.500000 -6.000000 0.000000
28.875000 -6.000000 0.000000
29.250000 -6.000000 0.000000
29.625000 -6.000000 0.000000
30.000000 -6.000000 0.000000
30.375000 -6.000000 0.000000
30.750000 -6.000000 0.000000
31.125000 -6.000000 0.000000
31.500000 -6.000000 0.000000
31.875000 -6.000000 0.000000
32.250000 -6.000000 0.000000
32.625000 -6.000000 0.000000
33.000000 -6.000000 0.000000
33.375000 -6.000000 0.000000
33.750000 -6.000000 0.000000
34.125000 -6.000000 0.000000
34.500000 -6.000000 0.000000
34.875000 -6.000000 0.000000
35.250000 -6.000000 0.000000
35.625000 -6.000000 0.000000
36.000000 -6.000000 0.000000
36.375000 -6.000000 0.000000
36.750000 -6.000000 0.000000
37.125000 -6.000000 0.000000
37.500000 -6.000000 0.000000
37.875000 -6.000000 0.000000
38.250000 -6.000000 0.000000
38.625000 -6.000000 0.000000
39.000000 -6.000000 0.000000
39.375000 -6.000000 0.000000
39.750000 -6.000000 0.000000
40.125000 -6.000000 0.000000
40.500000 -6.000000 0.000000
40.875000 -6.000000 0.000000
41.250000 -6.000000 0.000000
41.625000 -6.000000 0.000000
42.000000 -6.000000 0.000000
42.375000 -6.000000 0.000000
42.750000 -6.000000 0.000000
43.125000 -6.000000 0.000000
43.500000 -6.000000 0.000000
43.875000 -6.000000 0.000000
44.250000 -6.000000 0.000000
44.625000 -6.000000 0.000000
45.000000 -6.000000 0.000000
45.375000 -6.000000 0.000000
45.750000 -6.000000 0.000000
46.125000 -6.000000 0.000000
46.500000 -6.000000 0.000000
46.875000 -6.000000 0.000000
47.250000 -6.000000 0.000000
47.625000 -6.000000 0.000000
48.000000 -5.625000 0.000000
48.000000 -5.250000 0.000000
48.000000 -4.875000 0.000000
48.000000 -4.500000 0.000000
48.000000 -4.125000 0.000000
48.000000 -3.750000 0.000000
48.000000 -3.375000 0.000000
48.000000 -3.000000 0.000000
48.000000 -2.625000 0.000000
48.000000 -2.250000 0.000000
48.000000 -1.875000 0.000000
48.000000 -1.500000 0.000000
48.000000 -1.125000 0.000000
48.000000 -0.750000 0.000000
48.000000 -0.375000 0.000000
48.000000 -0.000000 0.000000
48.000000 0.375000 0.000000
48.000000 0.750000 0.000000
48.000000 1.125000 0.000000
48.000000 1.500000 0.000000
48.000000 1.875000 0.000000
48.000000 2.250000 0.000000
48.000000 2.625000 0.000000
48.000000 3.000000 0.000000
48.000000 3.375000 0.000000
48.000000 3.750000 0.000000
48.000000 4.125000 0.000000
48.000000 4.500000 0.000000
48.000000 4.875000 0.000000
48.000000 5.250000 0.000000
48.000000 5.625000 0.000000
47.625000 6.000000 0.000000
47.250000 6.000000 0.000000
46.875000 6.000000 0.000000
46.500000 6.000000 0.000000
46.125000 6.000000 0.000000
45.750000 6.000000 0.000000
45.375000 6.000000 0.000000
45.000000 6.000000 0.000000
44.625000 6.000000 0.000000
44.250000 6.000000 0.000000
43.875000 6.000000 0.000000
43.500000 6.000000 0.000000
43.125000 6.000000 0.000000
42.750000 6.000000 0.000000
42.375000 6.000000 0.000000
42.000000 6.000000 0.000000
41.625000 6.000000 0.000000
41.250000 6.000000 0.000000
40.875000 6.000000 0.000000
40.500000 6.000000 0.000000
40.125000 6.000000 0.000000
39.750000 6.000000 0.000000
39.375000 6.000000 0.000000
39.000000 6.000000 0.000000
38.625000 6.000000 0.000000
38.250000 6.000000 0.000000
37.875000 6.000000 0.000000
37.500000 6.000000 0.000000
37.125000 6.000000 0.000000
36.750000 6.000000 0.000000
36.375000 6.000000 0.000000
36.000000 6.000000 0.000000
35.625000 6.000000 0.000000
35.250000 6.000000 0.000000
34.875000 6.000000 0.000000
34.500000 6.000000 0.000000
34.125000 6.000000 0.000000
33.750000 6.000000 0.000000
33.375000 6.000000 0.000000
33.000000 6.000000 0.000000
32.625000 6.000000 0.000000
32.250000 6.000000 0.000000
31.875000 6.000000 0.000000
31.500000 6.000000 0.000000
31.125000 6.000000 0.000000
30.750000 6.000000 0.000000
30.375000 6.000000 0.000000
30.000000 6.000000 0.000000
29.625000 6.000000 0.000000
29.250000 6.000000 0.000000
28.875000 6.000000 0.000000
28.500000 6.000000 0.000000
28.125000 6.000000 0.000000
27.750000 6.000000 0.000000
27.375000 6.000000 0.000000
27.000000 6.000000 0.000000
26.625000 6.000000 0.000000
26.250000 6.000000 0.000000
25.875000 6.000000 0.000000
25.500000 6.000000 0.000000
25.125000 6.000000 0.000000
24.750000 6.000000 0.000000
24.375000 6.000000 0.000000
24.000000 6.000000 0.000000
23.625000 6.000000 0.000000
23.250000 6.000000 0.000000
22.875000 6.000000 0.000000
22.500000 6.000000 0.000000
22.125000 6.000000 0.000000
21.750000 6.000000 0.000000
21.375000 6.000000 0.000000
21.000000 6.000000 0.000000
20.625000 6.000000 0.000000
20.250000 6.000000 0.000000
19.875000 6.000000 0.000000
19.500000 6.000000 0.000000
19.125000 6.000000 0.000000
18.750000 6.000000 0.000000
18.375000 6.000000 0.000000
18.000000 6.000000 0.000000
17.625000 6.000000 0.000000
17.250000 6.000000 0.000000
16.875000 6.000000 0.000000
16.500000 6.000000 0.000000
16.125000 6.000000 0.000000
15.750000 6.000000 0.000000
15.375000 6.000000 0.000000
15.000000 6.000000 0.000000
14.625000 6.000000 0.000000
14.250000 6.000000 0.000000
13.875000 6.000000 0.000000
13.500000 6.000000 0.000000
13.125000 6.000000 0.000000
12.750000 6.000000 0.000000
12.375000 6.000000 0.000000
12.000000 6.000000 0.000000
11.625000 6.000000 0.000000
11.250000 6.000000 0.000000
10.875000 6.000000 0.000000
10.500000 6.000000 0.000000
10.125000 6.000000 0.000000
9.750000 6.000000 0.000000
9.375000 6.000000 0.000000
9.000000 6.000000 0.000000
8.625000 6.000000 0.000000
8.250000 6.000000 0.000000
7.875000 6.000000 0.000000
7.500000 6.000000 0.000000
7.125000 6.000000 0.000000
6.750000 6.000000 0.000000
6.375000 6.000000 0.000000
6.000000 6.000000 0.000000
5.625000 6.000000 0.000000
5.250000 6.000000 0.000000
4.875000 6.000000 0.000000
4.500000 6.000000 0.000000
4.125000 6.000000 0.000000
3.750000 6.000000 0.000000
3.375000 6.000000 0.000000
3.000000 6.000000 0.000000
2.625000 6.000000 0.000000
2.250000 6.000000 0.000000
1.875000 6.000000 0.000000
1.500000 6.000000 0.000000
1.125000 6.000000 0.000000
0.750000 6.000000 0.000000
0.375000 6.000000 0.000000
0.000000 5.625000 0.000000
0.000000 5.250000 0.000000
0.000000 4.875000 0.000000
0.000000 4.500000 0.000000
0.000000 4.125000 0.000000
0.000000 3.750000 0.000000
0.000000 3.375000 0.000000
0.000000 3.000000 0.000000
0.000000 2.625000 0.000000
0.000000 2.250000 0.000000
0.000000 1.875000 0.000000
0.000000 1.500000 0.000000
0.000000 1.125000 0.000000
0.000000 0.750000 0.000000
0.000000 0.375000 0.000000
0.000000 0.000000 0.000000
0.000000 -0.375000 0.000000
0.000000 -0.750000 0.000000
0.000000 -1.125000 0.000000
0.000000 -1.500000 0.000000
0.000000 -1.875000 0.000000
0.000000 -2.250000 0.000000
0.000000 -2.625000 0.000000
0.000000 -3.000000 0.000000
0.000000 -3.375000 0.000000
0.000000 -3.750000 0.000000
0.000000 -4.125000 0.000000
0.000000 -4.500000 0.000000
0.000000 -4.875000 0.000000
0.000000 -5.250000 0.000000
0.000000 -5.625000 0.000000
0.375000 -5.625000 0.000000
0.375000 -5.250000 0.000000
0.375000 -4.875000 0.000000
0.375000 -4.500000 0.000000
0.375000 -4.125000 0.000000
0.375000 -3.750000 0.000000
0.375000 -3.375000 0.000000
0.375000 -3.000000 0.000000
0.375000 -2.625000 0.000000
0.375000 -2.250000 0.000000
0.375000 -1.875000 0.000000
0.375000 -1.500000 0.000000
0.375000 -1.125000 0.000000
0.375000 -0.750000 0.000000
0.375000 -0.375000 0.000000
0.375000 0.000000 0.000000
0.375000 0.375000 0.000000
0.375000 0.750000 0.000000
0.375000 1.125000 0.000000
0.375000 1.500000 0.000000
0.375000 1.875000 0.000000
0.375000 2.250000 0.000000
0.375000 2.625000 0.000000
0.375000 3.000000 0.000000
0.375000 3.375000 0.000000
0.375000 3.750000 0.000000
0.375000 4.125000 0.000000
0.375000 4.500000 0.000000
0.375000 4.875000 0.000000
0.375000 5.250000 0.000000
0.375000 5.625000 0.000000
[...]
POINT_DATA 4257
VECTORS U float
0.000000 0.000002 0.000000
0.011758 0.066154 0.000000
-0.011758 0.066154 0.000000
-0.000000 0.000002 0.000000
0.000207 0.000565 0.000000
0.000410 0.000738 0.000000
0.000536 0.000926 0.000000
0.000688 0.001052 0.000000
0.000830 0.001175 0.000000
0.000982 0.001286 0.000000
0.001133 0.001399 0.000000
0.001289 0.001512 0.000000
0.001447 0.001631 0.000000
0.001606 0.001755 0.000000
0.001767 0.001888 0.000000
0.001928 0.002029 0.000000
0.002090 0.002179 0.000000
0.002251 0.002338 0.000000
0.002413 0.002507 0.000000
0.002574 0.002686 0.000000
0.002735 0.002874 0.000000
0.002894 0.003073 0.000000
0.003053 0.003282 0.000000
0.003211 0.003500 0.000000
0.003368 0.003729 0.000000
0.003523 0.003967 0.000000
0.003677 0.004215 0.000000
0.003830 0.004472 0.000000
0.003981 0.004740 0.000000
0.004131 0.005016 0.000000
0.004280 0.005302 0.000000
0.004427 0.005598 0.000000
0.004573 0.005902 0.000000
0.004717 0.006216 0.000000
0.004860 0.006539 0.000000
0.005002 0.006870 0.000000
0.005142 0.007211 0.000000
0.005280 0.007560 0.000000
0.005417 0.007917 0.000000
0.005553 0.008284 0.000000
0.005687 0.008658 0.000000
0.005820 0.009041 0.000000
0.005951 0.009433 0.000000
0.006081 0.009832 0.000000
0.006209 0.010240 0.000000
0.006336 0.010655 0.000000
0.006461 0.011078 0.000000
0.006585 0.011510 0.000000
0.006708 0.011948 0.000000
0.006828 0.012395 0.000000
0.006948 0.012849 0.000000
0.007066 0.013310 0.000000
0.007182 0.013779 0.000000
0.007298 0.014255 0.000000
0.007411 0.014738 0.000000
0.007523 0.015228 0.000000
0.007634 0.015725 0.000000
0.007743 0.016229 0.000000
0.007851 0.016740 0.000000
0.007957 0.017257 0.000000
0.008062 0.017782 0.000000
0.008165 0.018312 0.000000
0.008267 0.018849 0.000000
0.008368 0.019392 0.000000
0.008467 0.019942 0.000000
0.008564 0.020498 0.000000
0.008660 0.021059 0.000000
0.008755 0.021627 0.000000
0.008848 0.022200 0.000000
0.008940 0.022780 0.000000
0.009030 0.023365 0.000000
0.009118 0.023955 0.000000
0.009206 0.024551 0.000000
0.009291 0.025153 0.000000
0.009376 0.025760 0.000000
0.009458 0.026372 0.000000
0.009540 0.026989 0.000000
0.009620 0.027611 0.000000
0.009698 0.028238 0.000000
0.009775 0.028870 0.000000
0.009851 0.029507 0.000000
0.009925 0.030148 0.000000
0.009997 0.030794 0.000000
0.010068 0.031445 0.000000
0.010138 0.032100 0.000000
0.010206 0.032759 0.000000
0.010273 0.033422 0.000000
0.010338 0.034090 0.000000
0.010402 0.034762 0.000000
0.010464 0.035437 0.000000
0.010525 0.036116 0.000000
0.010584 0.036800 0.000000
0.010642 0.037486 0.000000
0.010699 0.038177 0.000000
0.010754 0.038871 0.000000
0.010807 0.039568 0.000000
0.010859 0.040268 0.000000
0.010910 0.040972 0.000000
0.010959 0.041679 0.000000
0.011007 0.042389 0.000000
0.011053 0.043102 0.000000
0.011097 0.043817 0.000000
0.011141 0.044536 0.000000
0.011182 0.045257 0.000000
0.011223 0.045980 0.000000
0.011262 0.046706 0.000000
0.011299 0.047435 0.000000
0.011335 0.048166 0.000000
0.011369 0.048899 0.000000
0.011402 0.049634 0.000000
0.011434 0.050371 0.000000
0.011464 0.051110 0.000000
0.011493 0.051851 0.000000
0.011520 0.052593 0.000000
0.011545 0.053337 0.000000
0.011570 0.054083 0.000000
0.011592 0.054831 0.000000
0.011614 0.055579 0.000000
0.011633 0.056329 0.000000
0.011652 0.057080 0.000000
0.011668 0.057832 0.000000
0.011684 0.058586 0.000000
0.011698 0.059340 0.000000
0.011710 0.060095 0.000000
0.011721 0.060850 0.000000
0.011731 0.061607 0.000000
0.011739 0.062364 0.000000
0.011746 0.063121 0.000000
0.011751 0.063879 0.000000
0.011754 0.064637 0.000000
0.011757 0.065395 0.000000
0.011001 0.066153 0.000000
0.010249 0.066153 0.000000
0.009501 0.066153 0.000000
0.008756 0.066153 0.000000
0.008015 0.066153 0.000000
0.007277 0.066153 0.000000
0.006541 0.066153 0.000000
0.005808 0.066153 0.000000
0.005077 0.066153 0.000000
0.004348 0.066153 0.000000
0.003621 0.066153 0.000000
0.002895 0.066153 0.000000
0.002171 0.066153 0.000000
0.001447 0.066153 0.000000
0.000723 0.066153 0.000000
0.000000 0.066153 0.000000
-0.000723 0.066153 0.000000
-0.001447 0.066153 0.000000
-0.002171 0.066153 0.000000
-0.002895 0.066153 0.000000
-0.003621 0.066153 0.000000
-0.004348 0.066153 0.000000
-0.005077 0.066153 0.000000
-0.005808 0.066153 0.000000
-0.006541 0.066153 0.000000
-0.007277 0.066153 0.000000
-0.008015 0.066153 0.000000
-0.008756 0.066153 0.000000
-0.009501 0.066153 0.000000
-0.010249 0.066153 0.000000
-0.011001 0.066153 0.000000
-0.011757 0.065395 0.000000
-0.011754 0.064637 0.000000
-0.011751 0.063879 0.000000
-0.011746 0.063121 0.000000
-0.011739 0.062364 0.000000
-0.011731 0.061607 0.000000
-0.011721 0.060850 0.000000
-0.011710 0.060095 0.000000
-0.011698 0.059340 0.000000
-0.011684 0.058586 0.000000
-0.011668 0.057832 0.000000
-0.011652 0.057080 0.000000
-0.011633 0.056329 0.000000
-0.011614 0.055579 0.000000
-0.011592 0.054831 0.000000
-0.011570 0.054083 0.000000
-0.011545 0.053337 0.000000
-0.011520 0.052593 0.000000
-0.011493 0.051851 0.000000
-0.011464 0.051110 0.000000
-0.011434 0.050371 0.000000
-0.011402 0.049634 0.000000
-0.011369 0.048899 0.000000
-0.011335 0.048166 0.000000
-0.011299 0.047435 0.000000
-0.011262 0.046706 0.000000
-0.011223 0.045980 0.000000
-0.011182 0.045257 0.000000
-0.011141 0.044536 0.000000
-0.011097 0.043817 0.000000
-0.011053 0.043102 0.000000
-0.011007 0.042389 0.000000
-0.010959 0.041679 0.000000
-0.010910 0.040972 0.000000
-0.010859 0.040268 0.000000
-0.010807 0.039568 0.000000
-0.010754 0.038871 0.000000
-0.010699 0.038177 0.000000
-0.010642 0.037486 0.000000
-0.010584 0.036800 0.000000
-0.010525 0.036116 0.000000
-0.010464 0.035437 0.000000
-0.010402 0.034762 0.000000
-0.010338 0.034090 0.000000
-0.010273 0.033422 0.000000
-0.010206 0.032759 0.000000
-0.010138 0.032100 0.000000
-0.010068 0.031445 0.000000
-0.009997 0.030794 0.000000
-0.009925 0.030148 0.000000
-0.009851 0.029507 0.000000
-0.009775 0.028870 0.000000
-0.009698 0.028238 0.000000
-0.009620 0.027611 0.000000
-0.009540 0.026989 0.000000
-0.009458 0.026372 0.000000
-0.009376 0.025760 0.000000
-0.009291 0.025153 0.000000
-0.009206 0.024551 0.000000
-0.009118 0.023955 0.000000
-0.009030 0.023365 0.000000
-0.008940 0.022780 0.000000
-0.008848 0.022200 0.000000
-0.008755 0.021627 0.000000
-0.008660 0.021059 0.000000
-0.008564 0.020498 0.000000
-0.008467 0.019942 0.000000
-0.008368 0.019392 0.000000
-0.008267 0.018849 0.000000
-0.008165 0.018312 0.000000
-0.008062 0.017782 0.000000
-0.007957 0.017257 0.000000
-0.007851 0.016740 0.000000
-0.007743 0.016229 0.000000
-0.007634 0.015725 0.000000
-0.007523 0.015228 0.000000
-0.007411 0.014738 0.000000
-0.007298 0.014255 0.000000
-0.007182 0.013779 0.000000
-0.007066 0.013310 0.000000
-0.006948 0.012849 0.000000
-0.006828 0.012395 0.000000
-0.006708 0.011948 0.000000
-0.006585 0.011510 0.000000
-0.006461 0.011078 0.000000
-0.006336 0.010655 0.000000
-0.006209 0.010240 0.000000
-0.006081 0.009832 0.000000
-0.005951 0.009433 0.000000
-0.005820 0.009041 0.000000
-0.005687 0.008658 0.000000
-0.005553 0.008284 0.000000
-0.005417 0.007917 0.000000
-0.005280 0.007560 0.000000
-0.005142 0.007211 0.000000
-0.005002 0.006870 0.000000
-0.004860 0.006539 0.000000
-0.004717 0.006216 0.000000
-0.004573 0.005902 0.000000
-0.004427 0.005598 0.000000
-0.004280 0.005302 0.000000
-0.004131 0.005016 0.000000
-0.003981 0.004740 0.000000
-0.003830 0.004472 0.000000
-0.003677 0.004215 0.000000
-0.003523 0.003967 0.000000
-0.003368 0.003729 0.000000
-0.003211 0.003500 0.000000
-0.003053 0.003282 0.000000
-0.002894 0.003073 0.000000
-0.002735 0.002874 0.000000
-0.002574 0.002686 0.000000
-0.002413 0.002507 0.000000
-0.002251 0.002338 0.000000
-0.002090 0.002179 0.000000
-0.001928 0.002029 0.000000
-0.001767 0.001888 0.000000
-0.001606 0.001755 0.000000
-0.001447 0.001631 0.000000
-0.001289 0.001512 0.000000
-0.001133 0.001399 0.000000
-0.000982 0.001286 0.000000
-0.000830 0.001175 0.000000
-0.000688 0.001052 0.000000
-0.000536 0.000926 0.000000
-0.000410 0.000738 0.000000
-0.000207 0.000565 0.000000
0.000000 -0.000002 0.000000
-0.000000 0.000002 0.000000
0.000000 -0.000002 0.000000
-0.000000 0.000002 0.000000
0.000000 -0.000002 0.000000
-0.000000 0.000002 0.000000
0.000000 -0.000002 0.000000
-0.000000 0.000002 0.000000
0.000000 -0.000002 0.000000
-0.000000 0.000002 0.000000
0.000000 -0.000002 0.000000
-0.000000 0.000002 0.000000
0.000000 -0.000002 0.000000
-0.000000 0.000002 0.000000
0.000000 -0.000002 0.000000
-0.000000 0.000002 0.000000
-0.000000 -0.000002 0.000000
0.000000 0.000002 0.000000
-0.000000 -0.000002 0.000000
0.000000 0.000002 0.000000
-0.000000 -0.000002 0.000000
0.000000 0.000002 0.000000
-0.000000 -0.000002 0.000000
0.000000 0.000002 0.000000
-0.000000 -0.000002 0.000000
0.000000 0.000002 0.000000
-0.000000 -0.000002 0.000000
0.000000 0.000002 0.000000
-0.000000 -0.000002 0.000000
0.000000 0.000002 0.000000
-0.000000 -0.000002 0.000000
0.000048 0.000313 0.000000
0.000047 0.000214 0.000000
0.000023 0.000147 0.000000
0.000025 0.000096 0.000000
0.000014 0.000060 0.000000
0.000016 0.000026 0.000000
0.000010 0.000003 0.000000
0.000011 -0.000021 0.000000
0.000007 -0.000035 0.000000
0.000007 -0.000053 0.000000
0.000004 -0.000061 0.000000
0.000005 -0.000074 0.000000
0.000003 -0.000078 0.000000
0.000002 -0.000086 0.000000
0.000001 -0.000085 0.000000
-0.000000 -0.000089 0.000000
-0.000001 -0.000085 0.000000
-0.000002 -0.000086 0.000000
-0.000003 -0.000078 0.000000
-0.000005 -0.000074 0.000000
-0.000004 -0.000061 0.000000
-0.000007 -0.000053 0.000000
-0.000007 -0.000035 0.000000
-0.000011 -0.000021 0.000000
-0.000010 0.000003 0.000000
-0.000016 0.000026 0.000000
-0.000014 0.000060 0.000000
-0.000025 0.000096 0.000000
-0.000023 0.000147 0.000000
-0.000047 0.000214 0.000000
-0.000048 0.000313 0.000000
0.000232 0.000603 0.000000
0.000140 0.000425 0.000000
0.000112 0.000310 0.000000
0.000080 0.000218 0.000000
0.000070 0.000144 0.000000
0.000053 0.000085 0.000000
0.000047 0.000034 0.000000
0.000036 -0.000005 0.000000
0.000032 -0.000041 0.000000
0.000025 -0.000067 0.000000
0.000021 -0.000092 0.000000
0.000015 -0.000108 0.000000
0.000012 -0.000124 0.000000
0.000007 -0.000131 0.000000
0.000004 -0.000139 0.000000
-0.000000 -0.000138 0.000000
-0.000004 -0.000139 0.000000
-0.000007 -0.000131 0.000000
-0.000012 -0.000124 0.000000
-0.000015 -0.000108 0.000000
-0.000021 -0.000092 0.000000
-0.000025 -0.000067 0.000000
-0.000032 -0.000041 0.000000
-0.000036 -0.000005 0.000000
-0.000047 0.000034 0.000000
-0.000053 0.000085 0.000000
-0.000070 0.000144 0.000000
-0.000080 0.000218 0.000000
-0.000112 0.000310 0.000000
-0.000140 0.000425 0.000000
-0.000232 0.000603 0.000000
0.000404 0.000763 0.000000
0.000295 0.000613 0.000000
0.000221 0.000462 0.000000
0.000181 0.000345 0.000000
0.000143 0.000245 0.000000
0.000122 0.000161 0.000000
0.000098 0.000093 0.000000
0.000084 0.000033 0.000000
0.000068 -0.000014 0.000000
0.000057 -0.000057 0.000000
0.000045 -0.000087 0.000000
0.000036 -0.000116 0.000000
0.000025 -0.000133 0.000000
0.000017 -0.000150 0.000000
0.000008 -0.000155 0.000000
-0.000000 -0.000161 0.000000
-0.000008 -0.000155 0.000000
-0.000017 -0.000150 0.000000
-0.000025 -0.000133 0.000000
-0.000036 -0.000116 0.000000
-0.000045 -0.000087 0.000000
-0.000057 -0.000057 0.000000
-0.000068 -0.000014 0.000000
-0.000084 0.000033 0.000000
-0.000098 0.000093 0.000000
-0.000122 0.000161 0.000000
-0.000143 0.000245 0.000000
-0.000181 0.000345 0.000000
-0.000221 0.000462 0.000000
-0.000295 0.000613 0.000000
-0.000404 0.000763 0.000000
0.000560 0.000907 0.000000
0.000449 0.000748 0.000000
0.000362 0.000603 0.000000
0.000293 0.000467 0.000000
0.000246 0.000351 0.000000
0.000202 0.000252 0.000000
0.000172 0.000166 0.000000
0.000142 0.000095 0.000000
0.000120 0.000032 0.000000
0.000097 -0.000017 0.000000
0.000079 -0.000061 0.000000
0.000061 -0.000092 0.000000
0.000045 -0.000120 0.000000
0.000029 -0.000135 0.000000
0.000015 -0.000148 0.000000
-0.000000 -0.000149 0.000000
-0.000015 -0.000148 0.000000
-0.000029 -0.000135 0.000000
-0.000045 -0.000120 0.000000
-0.000061 -0.000092 0.000000
-0.000079 -0.000061 0.000000
-0.000097 -0.000017 0.000000
-0.000120 0.000032 0.000000
-0.000142 0.000095 0.000000
-0.000172 0.000166 0.000000
-0.000202 0.000252 0.000000
-0.000246 0.000351 0.000000
-0.000293 0.000467 0.000000
-0.000362 0.000603 0.000000
-0.000449 0.000748 0.000000
-0.000560 0.000907 0.000000
0.000715 0.001023 0.000000
0.000603 0.000872 0.000000
0.000504 0.000722 0.000000
0.000424 0.000585 0.000000
0.000355 0.000459 0.000000
0.000302 0.000349 0.000000
0.000253 0.000253 0.000000
0.000215 0.000170 0.000000
0.000178 0.000100 0.000000
0.000149 0.000039 0.000000
0.000119 -0.000008 0.000000
0.000094 -0.000049 0.000000
0.000068 -0.000077 0.000000
0.000045 -0.000100 0.000000
0.000022 -0.000111 0.000000
-0.000000 -0.000117 0.000000
-0.000022 -0.000111 0.000000
-0.000045 -0.000100 0.000000
-0.000068 -0.000077 0.000000
-0.000094 -0.000049 0.000000
-0.000119 -0.000008 0.000000
-0.000149 0.000039 0.000000
-0.000178 0.000100 0.000000
-0.000215 0.000170 0.000000
-0.000253 0.000253 0.000000
-0.000302 0.000349 0.000000
-0.000355 0.000459 0.000000
-0.000424 0.000585 0.000000
-0.000504 0.000722 0.000000
-0.000603 0.000872 0.000000
-0.000715 0.001023 0.000000
0.000867 0.001136 0.000000
0.000754 0.000984 0.000000
0.000650 0.000837 0.000000
0.000556 0.000697 0.000000
0.000478 0.000569 0.000000
0.000406 0.000452 0.000000
0.000348 0.000349 0.000000
0.000294 0.000260 0.000000
0.000248 0.000181 0.000000
0.000204 0.000117 0.000000
0.000167 0.000061 0.000000
0.000129 0.000018 0.000000
0.000096 -0.000017 0.000000
0.000063 -0.000039 0.000000
0.000031 -0.000055 0.000000
-0.000000 -0.000058 0.000000
-0.000031 -0.000055 0.000000
-0.000063 -0.000039 0.000000
-0.000096 -0.000017 0.000000
-0.000129 0.000018 0.000000
-0.000167 0.000061 0.000000
-0.000204 0.000117 0.000000
-0.000248 0.000181 0.000000
-0.000294 0.000260 0.000000
-0.000348 0.000349 0.000000
-0.000406 0.000452 0.000000
-0.000478 0.000569 0.000000
-0.000556 0.000697 0.000000
-0.000650 0.000837 0.000000
-0.000754 0.000984 0.000000
-0.000867 0.001136 0.000000
0.001019 0.001245 0.000000
0.000904 0.001095 0.000000
0.000793 0.000949 0.000000
0.000692 0.000810 0.000000
0.000600 0.000680 0.000000
0.000519 0.000561 0.000000
0.000445 0.000454 0.000000
0.000381 0.000359 0.000000
0.000321 0.000278 0.000000
0.000268 0.000207 0.000000
0.000217 0.000149 0.000000
0.000170 0.000100 0.000000
0.000125 0.000065 0.000000
0.000083 0.000038 0.000000
0.000041 0.000024 0.000000
-0.000000 0.000017 0.000000
-0.000041 0.000024 0.000000
-0.000083 0.000038 0.000000
-0.000125 0.000065 0.000000
-0.000170 0.000100 0.000000
-0.000217 0.000149 0.000000
-0.000268 0.000207 0.000000
-0.000321 0.000278 0.000000
-0.000381 0.000359 0.000000
-0.000445 0.000454 0.000000
-0.000519 0.000561 0.000000
-0.000600 0.000680 0.000000
-0.000692 0.000810 0.000000
-0.000793 0.000949 0.000000
-0.000904 0.001095 0.000000
-0.001019 0.001245 0.000000
0.001171 0.001358 0.000000
0.001052 0.001207 0.000000
0.000936 0.001063 0.000000
0.000826 0.000924 0.000000
0.000726 0.000795 0.000000
0.000632 0.000675 0.000000
0.000548 0.000567 0.000000
0.000470 0.000470 0.000000
0.000399 0.000384 0.000000
0.000332 0.000312 0.000000
0.000272 0.000250 0.000000
0.000213 0.000201 0.000000
0.000158 0.000161 0.000000
0.000104 0.000135 0.000000
0.000052 0.000117 0.000000
-0.000000 0.000113 0.000000
-0.000052 0.000117 0.000000
-0.000104 0.000135 0.000000
-0.000158 0.000161 0.000000
-0.000213 0.000201 0.000000
-0.000272 0.000250 0.000000
-0.000332 0.000312 0.000000
-0.000399 0.000384 0.000000
-0.000470 0.000470 0.000000
-0.000548 0.000567 0.000000
-0.000632 0.000675 0.000000
-0.000726 0.000795 0.000000
-0.000826 0.000924 0.000000
-0.000936 0.001063 0.000000
-0.001052 0.001207 0.000000
-0.001171 0.001358 0.000000
0.001323 0.001475 0.000000
0.001199 0.001325 0.000000
0.001077 0.001181 0.000000
0.000961 0.001044 0.000000
0.000849 0.000916 0.000000
0.000747 0.000796 0.000000
0.000650 0.000688 0.000000
0.000562 0.000589 0.000000
0.000478 0.000504 0.000000
0.000402 0.000428 0.000000
0.000327 0.000366 0.000000
0.000258 0.000313 0.000000
0.000191 0.000275 0.000000
0.000126 0.000245 0.000000
0.000063 0.000229 0.000000
-0.000000 0.000222 0.000000
-0.000063 0.000229 0.000000
-0.000126 0.000245 0.000000
-0.000191 0.000275 0.000000
-0.000258 0.000313 0.000000
-0.000327 0.000366 0.000000
-0.000402 0.000428 0.000000
-0.000478 0.000504 0.000000
-0.000562 0.000589 0.000000
-0.000650 0.000688 0.000000
-0.000747 0.000796 0.000000
-0.000849 0.000916 0.000000
-0.000961 0.001044 0.000000
-0.001077 0.001181 0.000000
-0.001199 0.001325 0.000000
-0.001323 0.001475 0.000000
0.001477 0.001599 0.000000
0.001345 0.001449 0.000000
0.001217 0.001306 0.000000
0.001092 0.001171 0.000000
0.000974 0.001043 0.000000
0.000860 0.000925 0.000000
0.000755 0.000816 0.000000
0.000654 0.000719 0.000000
0.000560 0.000632 0.000000
0.000470 0.000557 0.000000
0.000386 0.000492 0.000000
0.000304 0.000441 0.000000
0.000226 0.000399 0.000000
0.000149 0.000371 0.000000
0.000074 0.000353 0.000000
-0.000000 0.000348 0.000000
-0.000074 0.000353 0.000000
-0.000149 0.000371 0.000000
-0.000226 0.000399 0.000000
-0.000304 0.000441 0.000000
-0.000386 0.000492 0.000000
-0.000470 0.000557 0.000000
-0.000560 0.000632 0.000000
-0.000654 0.000719 0.000000
-0.000755 0.000816 0.000000
-0.000860 0.000925 0.000000
-0.000974 0.001043 0.000000
-0.001092 0.001171 0.000000
-0.001217 0.001306 0.000000
-0.001345 0.001449 0.000000
-0.001477 0.001599 0.000000
0.001629 0.001731 0.000000
0.001492 0.001581 0.000000
0.001356 0.001439 0.000000
0.001224 0.001305 0.000000
0.001096 0.001179 0.000000
0.000974 0.001062 0.000000
0.000857 0.000955 0.000000
0.000747 0.000857 0.000000
0.000640 0.000771 0.000000
0.000540 0.000695 0.000000
0.000443 0.000632 0.000000
0.000351 0.000579 0.000000
0.000260 0.000539 0.000000
0.000173 0.000509 0.000000
0.000086 0.000492 0.000000
-0.000000 0.000485 0.000000
-0.000086 0.000492 0.000000
-0.000173 0.000509 0.000000
-0.000260 0.000539 0.000000
-0.000351 0.000579 0.000000
-0.000443 0.000632 0.000000
-0.000540 0.000695 0.000000
-0.000640 0.000771 0.000000
-0.000747 0.000857 0.000000
-0.000857 0.000955 0.000000
-0.000974 0.001062 0.000000
-0.001096 0.001179 0.000000
-0.001224 0.001305 0.000000
-0.001356 0.001439 0.000000
-0.001492 0.001581 0.000000
-0.001629 0.001731 0.000000
0.001783 0.001871 0.000000
0.001637 0.001722 0.000000
0.001494 0.001581 0.000000
0.001353 0.001448 0.000000
0.001217 0.001324 0.000000
0.001085 0.001208 0.000000
0.000959 0.001102 0.000000
0.000837 0.001006 0.000000
0.000722 0.000920 0.000000
0.000609 0.000846 0.000000
0.000502 0.000781 0.000000
0.000397 0.000730 0.000000
0.000296 0.000688 0.000000
0.000196 0.000660 0.000000
0.000098 0.000641 0.000000
-0.000000 0.000636 0.000000
-0.000098 0.000641 0.000000
-0.000196 0.000660 0.000000
-0.000296 0.000688 0.000000
-0.000397 0.000730 0.000000
-0.000502 0.000781 0.000000
-0.000609 0.000846 0.000000
-0.000722 0.000920 0.000000
-0.000837 0.001006 0.000000
-0.000959 0.001102 0.000000
-0.001085 0.001208 0.000000
-0.001217 0.001324 0.000000
-0.001353 0.001448 0.000000
-0.001494 0.001581 0.000000
-0.001637 0.001722 0.000000
-0.001783 0.001871 0.000000
0.001935 0.002021 0.000000
0.001782 0.001873 0.000000
0.001630 0.001733 0.000000
0.001482 0.001601 0.000000
0.001336 0.001478 0.000000
0.001196 0.001363 0.000000
0.001059 0.001259 0.000000
0.000928 0.001164 0.000000
0.000801 0.001079 0.000000
0.000679 0.001005 0.000000
0.000559 0.000942 0.000000
0.000444 0.000890 0.000000
0.000330 0.000850 0.000000
0.000219 0.000821 0.000000
0.000109 0.000804 0.000000
-0.000000 0.000797 0.000000
-0.000109 0.000804 0.000000
-0.000219 0.000821 0.000000
-0.000330 0.000850 0.000000
-0.000444 0.000890 0.000000
-0.000559 0.000942 0.000000
-0.000679 0.001005 0.000000
-0.000801 0.001079 0.000000
-0.000928 0.001164 0.000000
-0.001059 0.001259 0.000000
-0.001196 0.001363 0.000000
-0.001336 0.001478 0.000000
-0.001482 0.001601 0.000000
-0.001630 0.001733 0.000000
-0.001782 0.001873 0.000000