# vtk DataFile Version 2.0
cantilever_Q4P1_mix
ASCII
DATASET POLYDATA
POINTS 861 float
0.000000 0.000000 0.000000
48.000000 44.000000 0.000000
48.000000 60.000000 0.000000
0.000000 44.000000 0.000000
2.664144 2.442132 0.000000
5.201425 4.767973 0.000000
7.617883 6.983059 0.000000
9.919271 9.092665 0.000000
12.111069 11.101813 0.000000
14.198496 13.015288 0.000000
16.186522 14.837645 0.000000
18.079879 16.573223 0.000000
19.883077 18.226154 0.000000
21.600409 19.800375 0.000000
23.235962 21.299632 0.000000
24.793632 22.727496 0.000000
26.277128 24.087367 0.000000
27.689980 25.382482 0.000000
29.035554 26.615925 0.000000
30.317053 27.790632 0.000000
31.537529 28.909401 0.000000
32.699886 29.974896 0.000000
33.806893 30.989652 0.000000
34.861186 31.956087 0.000000
35.865274 32.876501 0.000000
36.821548 33.753086 0.000000
37.732286 34.587928 0.000000
38.599655 35.383017 0.000000
39.425720 36.140244 0.000000
40.212450 36.861412 0.000000
40.961716 37.548239 0.000000
41.675302 38.202360 0.000000
42.354908 38.825333 0.000000
43.002153 39.418640 0.000000
43.618576 39.983694 0.000000
44.205645 40.521841 0.000000
44.764759 41.034362 0.000000
45.297248 41.522477 0.000000
45.804381 41.987349 0.000000
46.287364 42.430084 0.000000
46.747349 42.851736 0.000000
47.185429 43.253310 0.000000
47.602648 43.635761 0.000000
48.000000 44.800000 0.000000
48.000000 45.600000 0.000000
48.000000 46.400000 0.000000
48.000000 47.200000 0.000000
48.000000 48.000000 0.000000
48.000000 48.800000 0.000000
48.000000 49.600000 0.000000
48.000000 50.400000 0.000000
48.000000 51.200000 0.000000
48.000000 52.000000 0.000000
48.000000 52.800000 0.000000
48.000000 53.600000 0.000000
48.000000 54.400000 0.000000
48.000000 55.200000 0.000000
48.000000 56.000000 0.000000
48.000000 56.800000 0.000000
48.000000 57.600000 0.000000
48.000000 58.400000 0.000000
48.000000 59.200000 0.000000
47.602648 59.867549 0.000000
47.185429 59.728476 0.000000
46.747349 59.582450 0.000000
46.287364 59.429121 0.000000
45.804381 59.268127 0.000000
45.297248 59.099083 0.000000
44.764759 58.921586 0.000000
44.205645 58.735215 0.000000
43.618575 58.539525 0.000000
43.002153 58.334051 0.000000
42.354908 58.118303 0.000000
41.675302 57.891767 0.000000
40.961716 57.653905 0.000000
40.212450 57.404150 0.000000
39.425720 57.141907 0.000000
38.599655 56.866552 0.000000
37.732286 56.577429 0.000000
36.821548 56.273849 0.000000
35.865274 55.955091 0.000000
34.861186 55.620395 0.000000
33.806893 55.268964 0.000000
32.699886 54.899962 0.000000
31.537529 54.512510 0.000000
30.317053 54.105684 0.000000
29.035554 53.678518 0.000000
27.689980 53.229993 0.000000
26.277128 52.759043 0.000000
24.793632 52.264544 0.000000
23.235962 51.745321 0.000000
21.600409 51.200136 0.000000
19.883077 50.627692 0.000000
18.079879 50.026626 0.000000
16.186522 49.395507 0.000000
14.198496 48.732832 0.000000
12.111069 48.037023 0.000000
9.919271 47.306424 0.000000
7.617883 46.539294 0.000000
5.201425 45.733808 0.000000
2.664144 44.888048 0.000000
0.000000 41.800000 0.000000
0.000000 39.600000 0.000000
0.000000 37.400000 0.000000
0.000000 35.200000 0.000000
0.000000 33.000000 0.000000
0.000000 30.800000 0.000000
0.000000 28.600000 0.000000
0.000000 26.400000 0.000000
0.000000 24.200000 0.000000
0.000000 22.000000 0.000000
0.000000 19.800000 0.000000
0.000000 17.600000 0.000000
0.000000 15.400000 0.000000
0.000000 13.200000 0.000000
0.000000 11.000000 0.000000
0.000000 8.800000 0.000000
0.000000 6.600000 0.000000
0.000000 4.400000 0.000000
0.000000 2.200000 0.000000
2.599043 4.507101 0.000000
2.581603 6.615915 0.000000
2.577174 8.736706 0.000000
2.576134 10.860619 0.000000
2.575906 12.985280 0.000000
2.575859 15.110108 0.000000
2.575850 17.234971 0.000000
2.575848 19.359840 0.000000
2.575848 21.484711 0.000000
2.575848 23.609582 0.000000
2.575848 25.734453 0.000000
2.575848 27.859324 0.000000
2.575848 29.984196 0.000000
2.575848 32.109067 0.000000
2.575848 34.233938 0.000000
2.575849 36.358809 0.000000
2.575930 38.483708 0.000000
2.577883 40.609239 0.000000
2.593298 42.739314 0.000000
5.119318 6.744179 0.000000
5.090866 8.769814 0.000000
5.082480 10.813933 0.000000
5.080259 12.863733 0.000000
5.079718 14.915080 0.000000
5.079594 16.966813 0.000000
5.079568 19.018634 0.000000
5.079562 21.070476 0.000000
5.079561 23.122321 0.000000
5.079561 25.174167 0.000000
5.079561 27.226013 0.000000
5.079561 29.277859 0.000000
5.079561 31.329705 0.000000
5.079561 33.381551 0.000000
5.079561 35.433397 0.000000
5.079575 37.485248 0.000000
5.079947 39.537220 0.000000
5.084315 41.590543 0.000000
5.110118 43.651111 0.000000
7.533200 8.886626 0.000000
7.501238 10.838802 0.000000
7.490795 12.810815 0.000000
7.487750 14.789647 0.000000
7.486938 16.770537 0.000000
7.486736 18.751989 0.000000
7.486689 20.733584 0.000000
7.486678 22.715213 0.000000
7.486676 24.696850 0.000000
7.486675 26.678488 0.000000
7.486675 28.660126 0.000000
7.486675 30.641765 0.000000
7.486675 32.623404 0.000000
7.486675 34.605042 0.000000
7.486677 36.586682 0.000000
7.486725 38.568336 0.000000
7.487411 40.550207 0.000000
7.493216 42.533810 0.000000
7.522510 44.525366 0.000000
9.836528 10.930852 0.000000
9.804306 12.815639 0.000000
9.793260 14.719954 0.000000
9.789839 16.631302 0.000000
9.788864 18.544904 0.000000
9.788605 20.459167 0.000000
9.788540 22.373608 0.000000
9.788524 24.288095 0.000000
9.788521 26.202594 0.000000
9.788520 28.117095 0.000000
9.788520 30.031596 0.000000
9.788520 31.946097 0.000000
9.788520 33.860599 0.000000
9.788520 35.775100 0.000000
9.788525 37.689604 0.000000
9.788610 39.604134 0.000000
9.789481 41.518930 0.000000
9.795777 43.435565 0.000000
9.825472 45.360130 0.000000
12.031597 12.878956 0.000000
12.000292 14.700535 0.000000
11.989337 16.540885 0.000000
11.985838 18.388112 0.000000
11.984800 20.237610 0.000000
11.984510 22.087797 0.000000
11.984434 23.938182 0.000000
11.984414 25.788619 0.000000
11.984410 27.639069 0.000000
11.984409 29.489523 0.000000
11.984408 31.339977 0.000000
11.984408 33.190432 0.000000
11.984408 35.040887 0.000000
11.984409 36.891342 0.000000
11.984418 38.741800 0.000000
11.984525 40.592290 0.000000
11.985464 42.443063 0.000000
11.991771 44.295656 0.000000
12.020702 46.155922 0.000000
14.122597 14.734684 0.000000
14.092576 16.496406 0.000000
14.081982 18.276052 0.000000
14.078550 20.062304 0.000000
14.077510 21.850762 0.000000
14.077211 23.639904 0.000000
14.077129 25.429247 0.000000
14.077108 27.218645 0.000000
14.077103 29.008058 0.000000
14.077101 30.797474 0.000000
14.077101 32.586892 0.000000
14.077101 34.376310 0.000000
14.077101 36.165728 0.000000
14.077102 37.955146 0.000000
14.077113 39.744568 0.000000
14.077229 41.534025 0.000000
14.078170 43.323762 0.000000
14.084294 45.115257 0.000000
14.112077 46.914098 0.000000
16.114171 16.502167 0.000000
16.085511 18.206999 0.000000
16.075366 19.928913 0.000000
16.072060 21.657135 0.000000
16.071047 23.387474 0.000000
16.070751 25.118474 0.000000
16.070669 26.849671 0.000000
16.070647 28.580924 0.000000
16.070641 30.312191 0.000000
16.070639 32.043463 0.000000
16.070639 33.774736 0.000000
16.070639 35.506009 0.000000
16.070639 37.237282 0.000000
16.070640 38.968555 0.000000
16.070653 40.699833 0.000000
16.070769 42.431145 0.000000
16.071684 44.162728 0.000000
16.077559 45.895994 0.000000
16.104097 47.636270 0.000000
18.010953 18.185522 0.000000
17.983636 19.836211 0.000000
17.973956 21.503172 0.000000
17.970793 23.176146 0.000000
17.969819 24.851139 0.000000
17.969534 26.526767 0.000000
17.969453 28.202585 0.000000
17.969430 29.878456 0.000000
17.969425 31.554342 0.000000
17.969423 33.230233 0.000000
17.969423 34.906124 0.000000
17.969423 36.582016 0.000000
17.969423 38.257908 0.000000
17.969424 39.933800 0.000000
17.969437 41.609697 0.000000
17.969551 43.285627 0.000000
17.970429 44.961817 0.000000
17.976039 46.639612 0.000000
18.001339 48.324087 0.000000
19.817427 19.788730 0.000000
19.791404 21.387867 0.000000
19.782178 23.002501 0.000000
19.779161 24.622863 0.000000
19.778231 26.245151 0.000000
19.777956 27.868044 0.000000
19.777878 29.491118 0.000000
19.777857 31.114244 0.000000
19.777851 32.737385 0.000000
19.777850 34.360530 0.000000
19.777849 35.983675 0.000000
19.777849 37.606821 0.000000
19.777849 39.229968 0.000000
19.777851 40.853114 0.000000
19.777863 42.476264 0.000000
19.777972 44.099447 0.000000
19.778811 45.722878 0.000000
19.784159 47.347839 0.000000
19.808264 48.979163 0.000000
21.537883 21.315598 0.000000
21.513097 22.865641 0.000000
21.504308 24.430444 0.000000
21.501433 26.000703 0.000000
21.500546 27.572796 0.000000
21.500284 29.145466 0.000000
21.500209 30.718308 0.000000
21.500188 32.291200 0.000000
21.500183 33.864106 0.000000
21.500181 35.437017 0.000000
21.500181 37.009928 0.000000
21.500181 38.582839 0.000000
21.500181 40.155750 0.000000
21.500182 41.728662 0.000000
21.500194 43.301578 0.000000
21.500299 44.874524 0.000000
21.501099 46.447707 0.000000
21.506194 48.022347 0.000000
21.529153 49.603048 0.000000
23.176413 22.769759 0.000000
23.152807 24.273048 0.000000
23.144436 25.790394 0.000000
23.141697 27.312935 0.000000
23.140852 28.837224 0.000000
23.140602 30.362062 0.000000
23.140531 31.887065 0.000000
23.140511 33.412116 0.000000
23.140506 34.937179 0.000000
23.140504 36.462247 0.000000
23.140504 37.987315 0.000000
23.140504 39.512383 0.000000
23.140504 41.037452 0.000000
23.140505 42.562521 0.000000
23.140517 44.087594 0.000000
23.140616 45.612696 0.000000
23.141378 47.138023 0.000000
23.146231 48.664739 0.000000
23.168098 50.197226 0.000000
24.736919 24.154675 0.000000
24.714436 25.613436 0.000000
24.706464 27.085585 0.000000
24.703855 28.562682 0.000000
24.703050 30.041443 0.000000
24.702812 31.520728 0.000000
24.702744 33.000169 0.000000
24.702725 34.479656 0.000000
24.702720 35.959155 0.000000
24.702719 37.438658 0.000000
24.702718 38.918161 0.000000
24.702718 40.397665 0.000000
24.702718 41.877170 0.000000
24.702720 43.356674 0.000000
24.702731 44.836182 0.000000
24.702826 46.315718 0.000000
[...]
POINT_DATA 861
VECTORS U float
-0.003814 0.004227 0.000000
-5.454351 25.377624 0.000000
-19.785604 27.433352 0.000000
-0.003814 0.004227 0.000000
0.017913 0.647796 0.000000
0.017444 1.206845 0.000000
0.062907 1.700073 0.000000
0.130965 2.135597 0.000000
0.271391 2.551248 0.000000
0.431707 2.976386 0.000000
0.630714 3.436645 0.000000
0.816103 3.944349 0.000000
1.000361 4.506211 0.000000
1.144673 5.120779 0.000000
1.263069 5.784005 0.000000
1.330886 6.488870 0.000000
1.363388 7.227872 0.000000
1.346409 7.993568 0.000000
1.294278 8.778692 0.000000
1.199520 9.577263 0.000000
1.074075 10.383392 0.000000
0.914467 11.192713 0.000000
0.729884 12.000747 0.000000
0.519175 12.804367 0.000000
0.289088 13.600245 0.000000
0.039771 14.386116 0.000000
-0.223930 15.159535 0.000000
-0.501209 15.918837 0.000000
-0.788599 16.662252 0.000000
-1.085038 17.388552 0.000000
-1.388029 18.096483 0.000000
-1.696490 18.785156 0.000000
-2.008607 19.453703 0.000000
-2.323404 20.101507 0.000000
-2.639562 20.727995 0.000000
-2.956272 21.332768 0.000000
-3.272602 21.915477 0.000000
-3.587941 22.475911 0.000000
-3.901733 23.013900 0.000000
-4.213635 23.529446 0.000000
-4.523731 24.022521 0.000000
-4.832300 24.493705 0.000000
-5.142390 24.942374 0.000000
-6.111210 25.401901 0.000000
-6.714391 25.447942 0.000000
-7.300377 25.504036 0.000000
-7.879777 25.574780 0.000000
-8.459707 25.656210 0.000000
-9.044655 25.747787 0.000000
-9.638210 25.847722 0.000000
-10.243363 25.955090 0.000000
-10.862781 26.068673 0.000000
-11.499011 26.187567 0.000000
-12.154549 26.310764 0.000000
-12.832071 26.437420 0.000000
-13.534423 26.566626 0.000000
-14.265169 26.697626 0.000000
-15.028320 26.829566 0.000000
-15.830326 26.961859 0.000000
-16.678454 27.093617 0.000000
-17.590524 27.224060 0.000000
-18.588106 27.353987 0.000000
-19.546069 26.761050 0.000000
-19.296792 26.141564 0.000000
-19.042930 25.540622 0.000000
-18.786032 24.947158 0.000000
-18.525245 24.354217 0.000000
-18.259564 23.757488 0.000000
-17.987967 23.153851 0.000000
-17.709446 22.540933 0.000000
-17.423021 21.916822 0.000000
-17.127644 21.279949 0.000000
-16.822260 20.629025 0.000000
-16.505709 19.963027 0.000000
-16.176827 19.281197 0.000000
-15.834355 18.583064 0.000000
-15.477074 17.868462 0.000000
-15.103714 17.137561 0.000000
-14.713120 16.390886 0.000000
-14.304159 15.629332 0.000000
-13.875885 14.854182 0.000000
-13.427470 14.067080 0.000000
-12.958289 13.270090 0.000000
-12.467984 12.465558 0.000000
-11.956273 11.656300 0.000000
-11.423419 10.845264 0.000000
-10.869365 10.035998 0.000000
-10.295190 9.231879 0.000000
-9.700714 8.437227 0.000000
-9.088210 7.655561 0.000000
-8.456571 6.892170 0.000000
-7.810129 6.150132 0.000000
-7.144992 5.436369 0.000000
-6.469753 4.752026 0.000000
-5.772988 4.107929 0.000000
-5.074023 3.498489 0.000000
-4.339770 2.947282 0.000000
-3.623052 2.421335 0.000000
-2.816652 1.999009 0.000000
-2.103563 1.499163 0.000000
-1.038108 1.304174 0.000000
0.003814 -0.004227 0.000000
-0.003814 0.004227 0.000000
0.003814 -0.004227 0.000000
-0.003814 0.004227 0.000000
0.003814 -0.004227 0.000000
-0.003814 0.004227 0.000000
0.003814 -0.004227 0.000000
-0.003814 0.004227 0.000000
0.003814 -0.004227 0.000000
-0.003814 0.004227 0.000000
0.003814 -0.004227 0.000000
-0.003814 0.004227 0.000000
0.003814 -0.004227 0.000000
-0.003814 0.004227 0.000000
0.003814 -0.004227 0.000000
-0.003814 0.004227 0.000000
0.003814 -0.004227 0.000000
-0.003814 0.004227 0.000000
0.003814 -0.004227 0.000000
-0.002997 0.616456 0.000000
0.013254 0.603248 0.000000
0.008881 0.594740 0.000000
0.028277 0.565086 0.000000
0.027683 0.532157 0.000000
0.043524 0.470971 0.000000
0.041984 0.412389 0.000000
0.051851 0.327690 0.000000
0.048148 0.255241 0.000000
0.051189 0.161424 0.000000
0.045298 0.090331 0.000000
0.040305 0.003500 0.000000
0.032077 -0.048921 0.000000
0.015422 -0.109456 0.000000
0.003044 -0.119019 0.000000
-0.037238 -0.121225 0.000000
-0.063568 -0.037354 0.000000
-0.181228 0.106677 0.000000
-0.294142 0.470395 0.000000
0.033542 1.172905 0.000000
0.041321 1.143989 0.000000
0.080289 1.097206 0.000000
0.100417 1.039080 0.000000
0.135931 0.949778 0.000000
0.150267 0.854734 0.000000
0.171572 0.731375 0.000000
0.173937 0.614902 0.000000
0.177463 0.478178 0.000000
0.166057 0.363028 0.000000
0.149232 0.238115 0.000000
0.121756 0.151246 0.000000
0.077967 0.068662 0.000000
0.026570 0.045413 0.000000
-0.064148 0.049991 0.000000
-0.165975 0.148208 0.000000
-0.370568 0.324939 0.000000
-0.624781 0.654142 0.000000
-1.237546 1.178029 0.000000
0.086924 1.657223 0.000000
0.148428 1.603301 0.000000
0.193452 1.534149 0.000000
0.252935 1.434788 0.000000
0.287340 1.324456 0.000000
0.323875 1.186289 0.000000
0.334813 1.050896 0.000000
0.340684 0.897031 0.000000
0.323528 0.762364 0.000000
0.294204 0.621780 0.000000
0.244389 0.518445 0.000000
0.171056 0.425309 0.000000
0.076881 0.390459 0.000000
-0.063354 0.388736 0.000000
-0.233486 0.471182 0.000000
-0.500412 0.621783 0.000000
-0.830553 0.876210 0.000000
-1.376382 1.237023 0.000000
-2.053509 1.556293 0.000000
0.217397 2.086158 0.000000
0.289171 2.019010 0.000000
0.374127 1.924269 0.000000
0.430276 1.814369 0.000000
0.483668 1.677771 0.000000
0.504863 1.540116 0.000000
0.514708 1.385387 0.000000
0.493484 1.246600 0.000000
0.453452 1.103612 0.000000
0.383664 0.994491 0.000000
0.284083 0.896796 0.000000
0.152997 0.851840 0.000000
-0.027766 0.837730 0.000000
-0.249114 0.894865 0.000000
-0.557423 1.005988 0.000000
-0.928673 1.194178 0.000000
-1.446907 1.453069 0.000000
-2.054072 1.722762 0.000000
-2.771352 2.076342 0.000000
0.372346 2.496044 0.000000
0.483927 2.417004 0.000000
0.563052 2.319108 0.000000
0.634511 2.195622 0.000000
0.667571 2.066965 0.000000
0.683311 1.921912 0.000000
0.660678 1.788727 0.000000
0.613283 1.651520 0.000000
0.528230 1.543318 0.000000
0.408430 1.445248 0.000000
0.249179 1.392664 0.000000
0.038726 1.366027 0.000000
-0.218211 1.398553 0.000000
-0.553003 1.473101 0.000000
-0.948085 1.608991 0.000000
-1.454836 1.797569 0.000000
-2.034184 2.015503 0.000000
-2.716370 2.296706 0.000000
-3.492076 2.586410 0.000000
0.571299 2.917040 0.000000
0.674772 2.837544 0.000000
0.765699 2.734482 0.000000
0.812537 2.622146 0.000000
0.836473 2.493539 0.000000
0.815616 2.372139 0.000000
0.764852 2.245940 0.000000
0.669958 2.143184 0.000000
0.536564 2.048150 0.000000
0.357904 1.991077 0.000000
0.127662 1.954650 0.000000
-0.152489 1.967039 0.000000
-0.503235 2.012106 0.000000
-0.912044 2.107853 0.000000
-1.412477 2.244802 0.000000
-1.977830 2.416336 0.000000
-2.635480 2.637344 0.000000
-3.367496 2.875332 0.000000
-4.171767 3.168892 0.000000
0.759401 3.374598 0.000000
0.871029 3.294163 0.000000
0.933679 3.201700 0.000000
0.968291 3.093302 0.000000
0.952557 2.987355 0.000000
0.902475 2.875409 0.000000
0.803024 2.781179 0.000000
0.662222 2.691951 0.000000
0.471873 2.633527 0.000000
0.230083 2.590879 0.000000
-0.063774 2.588331 0.000000
-0.422700 2.611183 0.000000
-0.838186 2.676567 0.000000
-1.332794 2.774748 0.000000
-1.887895 2.907330 0.000000
-2.525712 3.079663 0.000000
-3.228787 3.274231 0.000000
-4.002521 3.513712 0.000000
-4.851748 3.780989 0.000000
0.948494 3.880483 0.000000
1.028438 3.806380 0.000000
1.075958 3.718761 0.000000
1.068482 3.629704 0.000000
1.022805 3.533623 0.000000
0.923523 3.449794 0.000000
0.780658 3.368394 0.000000
0.585038 3.311273 0.000000
0.338301 3.265748 0.000000
0.038030 3.252958 0.000000
-0.323142 3.259847 0.000000
-0.739898 3.302587 0.000000
-1.227353 3.371600 0.000000
-1.772410 3.472677 0.000000
-2.392231 3.606111 0.000000
-3.072213 3.763973 0.000000
-3.820847 3.959011 0.000000
-4.633891 4.177537 0.000000
-5.510165 4.440885 0.000000
1.097501 4.441780 0.000000
1.159243 4.371151 0.000000
1.162553 4.297802 0.000000
1.124399 4.217527 0.000000
1.029250 4.144796 0.000000
0.888700 4.072390 0.000000
0.692963 4.018484 0.000000
0.446445 3.972744 0.000000
0.145348 3.953481 0.000000
-0.213482 3.949379 0.000000
-0.627246 3.975468 0.000000
-1.105691 4.022657 0.000000
-1.639696 4.098813 0.000000
-2.242044 4.201490 0.000000
-2.901158 4.328647 0.000000
-3.626008 4.486944 0.000000
-4.409799 4.667422 0.000000
-5.253346 4.883237 0.000000
-6.163163 5.132097 0.000000
1.220209 5.055903 0.000000
1.235749 4.992937 0.000000
1.207398 4.926193 0.000000
1.119484 4.863920 0.000000
0.984661 4.800723 0.000000
0.792810 4.751108 0.000000
0.550468 4.706983 0.000000
0.252794 4.684014 0.000000
-0.100177 4.672663 0.000000
-0.507608 4.686642 0.000000
-0.975230 4.717608 0.000000
-1.496882 4.774296 0.000000
-2.081697 4.852845 0.000000
-2.720760 4.954746 0.000000
-3.422136 5.082798 0.000000
-4.178964 5.232223 0.000000
-4.994025 5.411075 0.000000
-5.867169 5.614805 0.000000
-6.800230 5.857461 0.000000
1.290587 5.719710 0.000000
1.273211 5.660591 0.000000
1.194716 5.606196 0.000000
1.068117 5.551279 0.000000
0.883148 5.506155 0.000000
0.647912 5.464643 0.000000
0.356835 5.439806 0.000000
0.012363 5.423856 0.000000
-0.386180 5.429055 0.000000
-0.841453 5.447996 0.000000
-1.349545 5.489543 0.000000
-1.916582 5.549235 0.000000
-2.535871 5.630604 0.000000
-3.213998 5.734008 0.000000
-3.944839 5.857725 0.000000
-4.732154 6.006517 0.000000
-5.573541 6.176565 0.000000
-6.469777 6.375832 0.000000
-7.427378 6.608021 0.000000
1.324187 6.424769 0.000000
1.256316 6.372103 0.000000
1.139607 6.322758 0.000000
0.963656 6.281287 0.000000
0.737609 6.242569 0.000000
0.455426 6.216882 0.000000
0.121355 6.198069 0.000000
-0.266414 6.196825 0.000000
-0.708182 6.206800 0.000000
-1.201757 6.236521 0.000000
-1.750810 6.281447 0.000000
-2.350453 6.346195 0.000000
-3.005647 6.429642 0.000000
-3.711235 6.532129 0.000000
-4.471033 6.656103 0.000000
-5.282077 6.799284 0.000000
-6.145763 6.966433 0.000000
-7.063426 7.157086 0.000000
-8.039119 7.382045 0.000000
1.306181 7.164868 0.000000
1.200266 7.115090 0.000000
1.034781 7.074774 0.000000
0.819331 7.038072 0.000000
0.547640 7.011804 0.000000
0.225268 6.991104 0.000000
-0.150407 6.984953 0.000000
-0.577884 6.988107 0.000000
-1.056283 7.008451 0.000000
-1.587283 7.041707 0.000000
-2.167445 7.092950 0.000000
-2.800157 7.160241 0.000000
-3.481236 7.245231 0.000000
-4.213997 7.348748 0.000000
-4.995499 7.469868 0.000000
-5.827707 7.611471 0.000000
-6.710215 7.772270 0.000000
-7.644598 7.957507 0.000000
-8.637340 8.173295 0.000000
1.251423 7.931066 0.000000
1.097352 7.886089 0.000000
0.893441 7.849030 0.000000
0.633328 7.821571 0.000000
0.323482 7.799276 0.000000
-0.039237 7.789106 0.000000
-0.451971 7.786861 0.000000
-0.914820 7.799564 0.000000
-1.427870 7.823424 0.000000
-1.988827 7.863561 0.000000
-2.599653 7.917679 0.000000
-3.257041 7.988202 0.000000
-3.963539 8.074876 0.000000
-4.716456 8.177774 0.000000
-5.517860 8.298416 0.000000
-6.366823 8.435862 0.000000
-7.264709 8.592888 0.000000
-8.213629 8.770740 0.000000
-9.218976 8.978604 0.000000
1.152152 8.717527 0.000000
0.960504 8.674572 0.000000
0.712770 8.643794 0.000000
0.415969 8.619370 0.000000
0.066731 8.605484 0.000000
-0.331074 8.598680 0.000000
-0.778240 8.604906 0.000000
-1.273602 8.620982 0.000000
-1.815756 8.651791 0.000000
-2.405421 8.695008 0.000000
-3.040035 8.753448 0.000000
-3.721275 8.826191 0.000000
-4.446773 8.913986 0.000000
-5.218351 9.017330 0.000000
-6.034915 9.135759 0.000000
-6.898010 9.270823 0.000000
-7.808354 9.422339 0.000000
-8.768291 9.594079 0.000000
-9.784313 9.793053 0.000000
1.020826 9.516837 0.000000
0.786301 9.477425 0.000000
0.502990 9.448859 0.000000
0.167580 9.430813 0.000000
-0.215282 9.419750 0.000000
-0.646811 9.420196 0.000000
-1.124875 9.429569 0.000000
-1.648734 9.452312 0.000000
-2.218063 9.486298 0.000000
-2.830901 9.534466 0.000000
-3.488056 9.595554 0.000000
-4.187472 9.670729 0.000000
-4.930511 9.759757 0.000000
-5.716045 9.862544 0.000000
-6.545614 9.979766 0.000000
-7.419522 10.111061 0.000000
-8.339498 10.258056 0.000000
-9.308178 10.422670 0.000000
-10.331622 10.613190 0.000000
0.853846 10.324447 0.000000
0.584728 10.286639 0.000000
0.263559 10.262571 0.000000
-0.104376 10.246837 0.000000
-0.520403 10.241746 0.000000
-0.981625 10.245060 0.000000
-1.487764 10.260578 0.000000
-2.037641 10.286505 0.000000
-2.629759 10.325716 0.000000
-3.264109 10.376862 0.000000
-3.938902 10.441334 0.000000
-4.654919 10.518418 0.000000
-5.411040 10.608268 0.000000
-6.208592 10.710866 0.000000
-7.047693 10.825874 0.000000
-7.930045 10.954000 0.000000
-8.857146 11.095511 0.000000
-9.831897 11.253406 0.000000
-10.860703 11.434973 0.000000
0.660815 11.134751 0.000000
0.354739 11.099725 0.000000
0.001929 11.077513 0.000000
-0.398674 11.066481 0.000000
-0.843501 11.063946 0.000000
-1.332508 11.072725 0.000000
-1.863824 11.091352 0.000000
-2.436291 11.122507 0.000000
-3.049171 11.164933 0.000000
-3.700867 11.220117 0.000000
-4.391536 11.287083 0.000000
-5.120048 11.366123 0.000000
-5.887364 11.456692 0.000000
-6.693467 11.558455 0.000000
-7.539991 11.671469 0.000000
-8.428148 11.795582 0.000000
-9.360120 11.931830 0.000000
-10.338900 12.082426 0.000000
-11.370683 12.255166 0.000000
0.440530 11.944377 0.000000
0.103651 11.910887 0.000000
-0.281299 11.892169 0.000000
-0.710025 11.883364 0.000000
-1.182418 11.885513 0.000000
-1.696017 11.897251 0.000000
-2.249868 11.920901 0.000000
-2.842604 11.955412 0.000000
-3.472748 12.002281 0.000000
-4.139829 12.060453 0.000000
-4.842666 12.130293 0.000000
-5.581739 12.210881 0.000000
-6.356888 12.301842 0.000000
-7.169544 12.402680 0.000000
-8.020794 12.513017 0.000000
-8.912761 12.633109 0.000000
-9.847555 12.763471 0.000000
-10.828401 12.906796 0.000000
-11.861391 13.070475 0.000000
0.200042 12.749230 0.000000
-0.168292 12.718131 0.000000
-0.580803 12.701315 0.000000
-1.036891 12.696360 0.000000
-1.533484 12.701250 0.000000
-2.069659 12.717637 0.000000
-2.643511 12.744682 0.000000
-3.253608 12.783825 0.000000
-3.898882 12.834082 0.000000
-4.578042 12.895853 0.000000
-5.291018 12.968000 0.000000
-6.037454 13.050077 0.000000
-6.818449 13.141123 0.000000
-7.634958 13.240528 0.000000
-8.489066 13.347973 0.000000
-9.382775 13.463435 0.000000
-10.318699 13.587775 0.000000
-11.300008 13.723471 0.000000
-12.332577 13.878145 0.000000
-0.060517 13.546804 0.000000
-0.455844 13.517358 0.000000
-0.895459 13.503558 0.000000
-1.375483 13.501062 0.000000
-1.894745 13.510096 0.000000
-2.450837 13.529810 0.000000
-3.042291 13.561481 0.000000
-3.667489 13.604300 0.000000
-4.324974 13.658697 0.000000
-5.014085 13.723459 0.000000
-5.734198 13.798071 0.000000
-6.485960 13.881208 0.000000
-7.270132 13.972005 0.000000
-8.088656 14.069609 0.000000
-8.943535 14.173609 0.000000
-9.837437 14.284147 0.000000
-10.772961 14.402023 0.000000
-11.753427 14.529996 0.000000
-12.784326 14.675624 0.000000
-0.336082 14.334141 0.000000
-0.758115 14.306942 0.000000
-1.221454 14.295280 0.000000
-1.724243 14.296325 0.000000
-2.263476 14.308502 0.000000
-2.837518 14.332657 0.000000
-3.444247 14.368162 0.000000
-4.081991 14.415478 0.000000
-4.749482 14.473454 0.000000
-5.445748 14.541534 0.000000
-6.170886 14.618146 0.000000
-6.925361 14.702169 0.000000
-7.710840 14.792257 0.000000
-8.529277 14.887589 0.000000
-9.383425 14.987735 0.000000
-10.276010 15.092881 0.000000
-11.210002 15.204052 0.000000
-12.188563 15.324112 0.000000
-13.216877 15.460804 0.000000
-0.625844 15.109359 0.000000
-1.071349 15.084018 0.000000
-1.557498 15.075244 0.000000
-2.080395 15.079139 0.000000
-2.637987 15.095408 0.000000
-3.227650 15.123403 0.000000
-3.847437 15.163570 0.000000
-4.495484 15.214929 0.000000
-5.170399 15.276937 0.000000
-5.871635 15.347904 0.000000
-6.599251 15.426484 0.000000
-7.354499 15.510899 0.000000
-8.139175 15.599898 0.000000
-8.956011 15.692477 0.000000
-9.807914 15.788319 0.000000
-10.698117 15.887735 0.000000
-11.629591 15.991931 0.000000
-12.605547 16.104022 0.000000
-13.630637 16.231915 0.000000
-0.926179 15.870339 0.000000
-1.394414 15.847266 0.000000
-1.900822 15.840969 0.000000
-2.442502 15.848463 0.000000
-3.016188 15.868413 0.000000
-3.619565 15.901035 0.000000
-4.250185 15.945550 0.000000
-4.906170 16.001493 0.000000
-5.586267 16.067189 0.000000
-6.290002 16.141135 0.000000
-7.018070 16.221203 0.000000
-7.771974 16.305717 0.000000
-8.554284 16.393106 0.000000
-9.367996 16.482526 0.000000
-10.216602 16.573680 0.000000
-11.103456 16.667087 0.000000
-12.031789 16.764158 0.000000
-13.004621 16.868278 0.000000
-14.026222 16.987601 0.000000
-1.236010 16.615666 0.000000
-1.724595 16.594704 0.000000
-2.250169 16.591417 0.000000
-2.808484 16.602269 0.000000
-3.396641 16.626603 0.000000
-4.011582 16.663683 0.000000
-4.650891 16.713140 0.000000
-5.312557 16.773448 0.000000
-5.995447 16.843037 0.000000
-6.699557 16.919537 0.000000
-7.425947 17.000874 0.000000
-8.176873 17.084948 0.000000
-8.955289 17.170366 0.000000
-9.764818 17.256224 0.000000
-10.609170 17.342452 0.000000
-11.492068 17.429686 0.000000
-12.416755 17.519602 0.000000
-13.386261 17.615848 0.000000
-14.404322 17.726899 0.000000
-1.552728 17.343838 0.000000
-2.060746 17.325295 0.000000
-2.603498 17.324912 0.000000
-3.177084 17.339706 0.000000
-3.777694 17.368385 0.000000
-4.402291 17.410538 0.000000
-5.048067 17.464865 0.000000
-5.713114 17.529846 0.000000
-6.396583 17.602992 0.000000
-7.098915 17.681892 0.000000
-7.821898 17.763957 0.000000
-8.568308 17.847251 0.000000
-9.341758 17.930280 0.000000
-10.146174 18.012389 0.000000
-10.985676 18.093564 0.000000
-11.864103 18.174661 0.000000
-12.784910 18.257517 0.000000
-13.751006 18.346101 0.000000
-14.765803 18.449239 0.000000
-1.875231 18.053812 0.000000
-2.400889 18.037688 0.000000
-2.959684 18.040646 0.000000
-3.546705 18.059440 0.000000
-4.158110 18.093064 0.000000
-4.790241 18.140365 0.000000
-5.440297 18.199968 0.000000
-6.106439 18.269412 0.000000
-6.788289 18.346029 0.000000
-7.486993 18.426792 0.000000
-8.205004 18.509234 0.000000
-8.945808 18.591297 0.000000
-9.713414 18.671778 0.000000
-10.512159 18.750060 0.000000
-11.346322 18.826328 0.000000
-12.220009 18.901483 0.000000
-13.136755 18.977564 0.000000
-14.099578 19.058789 0.000000
-15.111535 19.154436 0.000000
-2.201624 18.744545 0.000000
-2.743987 18.731109 0.000000
-3.317206 18.737520 0.000000
-3.916267 18.760856 0.000000
-4.536517 18.799627 0.000000
-5.174146 18.852574 0.000000
-5.826165 18.917402 0.000000
-6.491145 18.991304 0.000000
-7.169370 19.070876 0.000000
-7.862812 19.153114 0.000000
-8.574722 19.235415 0.000000
-9.309105 19.316067 0.000000
-10.070382 19.393939 0.000000
-10.863056 19.468642 0.000000
-11.691631 19.540341 0.000000
-12.560338 19.610020 0.000000
-13.472989 19.679760 0.000000
-14.432709 19.754057 0.000000
-15.442492 19.842660 0.000000
-2.530913 19.415296 0.000000
-3.088593 19.404669 0.000000
-3.675107 19.414971 0.000000
-4.284502 19.443134 0.000000
-4.911776 19.487619 0.000000
-5.552625 19.546346 0.000000
-6.204290 19.616510 0.000000
-6.865911 19.694412 0.000000
-7.538748 19.776496 0.000000
-8.225715 19.859588 0.000000
-8.930762 19.941481 0.000000
-9.658335 20.020626 0.000000
-10.413026 20.096191 0.000000
-11.199479 20.167778 0.000000
-12.022269 20.235578 0.000000
-12.885869 20.300450 0.000000
-13.794352 20.364495 0.000000
-14.751243 20.432381 0.000000
-15.759593 20.514421 0.000000
-2.861722 20.065366 0.000000
-3.433841 20.057840 0.000000
-4.032239 20.072334 0.000000
-4.650435 20.105915 0.000000
-5.282600 20.156440 0.000000
-5.924332 20.221220 0.000000
-6.573235 20.296377 0.000000
-7.229521 20.377791 0.000000
-7.895600 20.461632 0.000000
-8.575344 20.545158 0.000000
-9.273235 20.626449 0.000000
-9.993918 20.704372 0.000000
-10.742037 20.778160 0.000000
-11.522217 20.847459 0.000000
-12.339135 20.912270 0.000000
-13.197454 20.973292 0.000000
-14.101718 21.032461 0.000000
-15.055987 21.094579 0.000000
-16.063790 21.170530 0.000000
-3.193229 20.694264 0.000000
-3.778688 20.690082 0.000000
-4.387791 20.709308 0.000000
-5.012938 20.748784 0.000000
-5.647737 20.805823 0.000000
-6.287748 20.876514 0.000000
-6.931608 20.956186 0.000000
-7.580926 21.040209 0.000000
-8.239442 21.125168 0.000000
-8.911744 21.208764 0.000000
-9.602590 21.289652 0.000000
-10.316597 21.366885 0.000000
-11.058308 21.439801 0.000000