# vtk DataFile Version 2.0
cantilever_tri6_mix
ASCII
DATASET POLYDATA
POINTS 3000 float
0.000000 -6.000000 0.000000
48.000000 -6.000000 0.000000
48.000000 6.000000 0.000000
0.000000 6.000000 0.000000
0.444444 -6.000000 0.000000
0.888889 -6.000000 0.000000
1.333333 -6.000000 0.000000
1.777778 -6.000000 0.000000
2.222222 -6.000000 0.000000
2.666667 -6.000000 0.000000
3.111111 -6.000000 0.000000
3.555556 -6.000000 0.000000
4.000000 -6.000000 0.000000
4.444444 -6.000000 0.000000
4.888889 -6.000000 0.000000
5.333333 -6.000000 0.000000
5.777778 -6.000000 0.000000
6.222222 -6.000000 0.000000
6.666667 -6.000000 0.000000
7.111111 -6.000000 0.000000
7.555556 -6.000000 0.000000
8.000000 -6.000000 0.000000
8.444444 -6.000000 0.000000
8.888889 -6.000000 0.000000
9.333333 -6.000000 0.000000
9.777778 -6.000000 0.000000
10.222222 -6.000000 0.000000
10.666667 -6.000000 0.000000
11.111111 -6.000000 0.000000
11.555556 -6.000000 0.000000
12.000000 -6.000000 0.000000
12.444444 -6.000000 0.000000
12.888889 -6.000000 0.000000
13.333333 -6.000000 0.000000
13.777778 -6.000000 0.000000
14.222222 -6.000000 0.000000
14.666667 -6.000000 0.000000
15.111111 -6.000000 0.000000
15.555556 -6.000000 0.000000
16.000000 -6.000000 0.000000
16.444444 -6.000000 0.000000
16.888889 -6.000000 0.000000
17.333333 -6.000000 0.000000
17.777778 -6.000000 0.000000
18.222222 -6.000000 0.000000
18.666667 -6.000000 0.000000
19.111111 -6.000000 0.000000
19.555556 -6.000000 0.000000
20.000000 -6.000000 0.000000
20.444444 -6.000000 0.000000
20.888889 -6.000000 0.000000
21.333333 -6.000000 0.000000
21.777778 -6.000000 0.000000
22.222222 -6.000000 0.000000
22.666667 -6.000000 0.000000
23.111111 -6.000000 0.000000
23.555556 -6.000000 0.000000
24.000000 -6.000000 0.000000
24.444444 -6.000000 0.000000
24.888889 -6.000000 0.000000
25.333333 -6.000000 0.000000
25.777778 -6.000000 0.000000
26.222222 -6.000000 0.000000
26.666667 -6.000000 0.000000
27.111111 -6.000000 0.000000
27.555556 -6.000000 0.000000
28.000000 -6.000000 0.000000
28.444444 -6.000000 0.000000
28.888889 -6.000000 0.000000
29.333333 -6.000000 0.000000
29.777778 -6.000000 0.000000
30.222222 -6.000000 0.000000
30.666667 -6.000000 0.000000
31.111111 -6.000000 0.000000
31.555556 -6.000000 0.000000
32.000000 -6.000000 0.000000
32.444444 -6.000000 0.000000
32.888889 -6.000000 0.000000
33.333333 -6.000000 0.000000
33.777778 -6.000000 0.000000
34.222222 -6.000000 0.000000
34.666667 -6.000000 0.000000
35.111111 -6.000000 0.000000
35.555556 -6.000000 0.000000
36.000000 -6.000000 0.000000
36.444444 -6.000000 0.000000
36.888889 -6.000000 0.000000
37.333333 -6.000000 0.000000
37.777778 -6.000000 0.000000
38.222222 -6.000000 0.000000
38.666667 -6.000000 0.000000
39.111111 -6.000000 0.000000
39.555556 -6.000000 0.000000
40.000000 -6.000000 0.000000
40.444444 -6.000000 0.000000
40.888889 -6.000000 0.000000
41.333333 -6.000000 0.000000
41.777778 -6.000000 0.000000
42.222222 -6.000000 0.000000
42.666667 -6.000000 0.000000
43.111111 -6.000000 0.000000
43.555556 -6.000000 0.000000
44.000000 -6.000000 0.000000
44.444444 -6.000000 0.000000
44.888889 -6.000000 0.000000
45.333333 -6.000000 0.000000
45.777778 -6.000000 0.000000
46.222222 -6.000000 0.000000
46.666667 -6.000000 0.000000
47.111111 -6.000000 0.000000
47.555556 -6.000000 0.000000
48.000000 -5.555556 0.000000
48.000000 -5.111111 0.000000
48.000000 -4.666667 0.000000
48.000000 -4.222222 0.000000
48.000000 -3.777778 0.000000
48.000000 -3.333333 0.000000
48.000000 -2.888889 0.000000
48.000000 -2.444444 0.000000
48.000000 -2.000000 0.000000
48.000000 -1.555556 0.000000
48.000000 -1.111111 0.000000
48.000000 -0.666667 0.000000
48.000000 -0.222222 0.000000
48.000000 0.222222 0.000000
48.000000 0.666667 0.000000
48.000000 1.111111 0.000000
48.000000 1.555556 0.000000
48.000000 2.000000 0.000000
48.000000 2.444444 0.000000
48.000000 2.888889 0.000000
48.000000 3.333333 0.000000
48.000000 3.777778 0.000000
48.000000 4.222222 0.000000
48.000000 4.666667 0.000000
48.000000 5.111111 0.000000
48.000000 5.555556 0.000000
47.555556 6.000000 0.000000
47.111111 6.000000 0.000000
46.666667 6.000000 0.000000
46.222222 6.000000 0.000000
45.777778 6.000000 0.000000
45.333333 6.000000 0.000000
44.888889 6.000000 0.000000
44.444444 6.000000 0.000000
44.000000 6.000000 0.000000
43.555556 6.000000 0.000000
43.111111 6.000000 0.000000
42.666667 6.000000 0.000000
42.222222 6.000000 0.000000
41.777778 6.000000 0.000000
41.333333 6.000000 0.000000
40.888889 6.000000 0.000000
40.444444 6.000000 0.000000
40.000000 6.000000 0.000000
39.555556 6.000000 0.000000
39.111111 6.000000 0.000000
38.666667 6.000000 0.000000
38.222222 6.000000 0.000000
37.777778 6.000000 0.000000
37.333333 6.000000 0.000000
36.888889 6.000000 0.000000
36.444444 6.000000 0.000000
36.000000 6.000000 0.000000
35.555556 6.000000 0.000000
35.111111 6.000000 0.000000
34.666667 6.000000 0.000000
34.222222 6.000000 0.000000
33.777778 6.000000 0.000000
33.333333 6.000000 0.000000
32.888889 6.000000 0.000000
32.444444 6.000000 0.000000
32.000000 6.000000 0.000000
31.555556 6.000000 0.000000
31.111111 6.000000 0.000000
30.666667 6.000000 0.000000
30.222222 6.000000 0.000000
29.777778 6.000000 0.000000
29.333333 6.000000 0.000000
28.888889 6.000000 0.000000
28.444444 6.000000 0.000000
28.000000 6.000000 0.000000
27.555556 6.000000 0.000000
27.111111 6.000000 0.000000
26.666667 6.000000 0.000000
26.222222 6.000000 0.000000
25.777778 6.000000 0.000000
25.333333 6.000000 0.000000
24.888889 6.000000 0.000000
24.444444 6.000000 0.000000
24.000000 6.000000 0.000000
23.555556 6.000000 0.000000
23.111111 6.000000 0.000000
22.666667 6.000000 0.000000
22.222222 6.000000 0.000000
21.777778 6.000000 0.000000
21.333333 6.000000 0.000000
20.888889 6.000000 0.000000
20.444444 6.000000 0.000000
20.000000 6.000000 0.000000
19.555556 6.000000 0.000000
19.111111 6.000000 0.000000
18.666667 6.000000 0.000000
18.222222 6.000000 0.000000
17.777778 6.000000 0.000000
17.333333 6.000000 0.000000
16.888889 6.000000 0.000000
16.444444 6.000000 0.000000
16.000000 6.000000 0.000000
15.555556 6.000000 0.000000
15.111111 6.000000 0.000000
14.666667 6.000000 0.000000
14.222222 6.000000 0.000000
13.777778 6.000000 0.000000
13.333333 6.000000 0.000000
12.888889 6.000000 0.000000
12.444444 6.000000 0.000000
12.000000 6.000000 0.000000
11.555556 6.000000 0.000000
11.111111 6.000000 0.000000
10.666667 6.000000 0.000000
10.222222 6.000000 0.000000
9.777778 6.000000 0.000000
9.333333 6.000000 0.000000
8.888889 6.000000 0.000000
8.444444 6.000000 0.000000
8.000000 6.000000 0.000000
7.555556 6.000000 0.000000
7.111111 6.000000 0.000000
6.666667 6.000000 0.000000
6.222222 6.000000 0.000000
5.777778 6.000000 0.000000
5.333333 6.000000 0.000000
4.888889 6.000000 0.000000
4.444444 6.000000 0.000000
4.000000 6.000000 0.000000
3.555556 6.000000 0.000000
3.111111 6.000000 0.000000
2.666667 6.000000 0.000000
2.222222 6.000000 0.000000
1.777778 6.000000 0.000000
1.333333 6.000000 0.000000
0.888889 6.000000 0.000000
0.444444 6.000000 0.000000
0.000000 5.555556 0.000000
0.000000 5.111111 0.000000
0.000000 4.666667 0.000000
0.000000 4.222222 0.000000
0.000000 3.777778 0.000000
0.000000 3.333333 0.000000
0.000000 2.888889 0.000000
0.000000 2.444444 0.000000
0.000000 2.000000 0.000000
0.000000 1.555556 0.000000
0.000000 1.111111 0.000000
0.000000 0.666667 0.000000
0.000000 0.222222 0.000000
0.000000 -0.222222 0.000000
0.000000 -0.666667 0.000000
0.000000 -1.111111 0.000000
0.000000 -1.555556 0.000000
0.000000 -2.000000 0.000000
0.000000 -2.444444 0.000000
0.000000 -2.888889 0.000000
0.000000 -3.333333 0.000000
0.000000 -3.777778 0.000000
0.000000 -4.222222 0.000000
0.000000 -4.666667 0.000000
0.000000 -5.111111 0.000000
0.000000 -5.555556 0.000000
0.667813 5.523668 0.000000
27.906157 1.043705 0.000000
41.756974 -4.108301 0.000000
4.104273 -0.857566 0.000000
16.352280 -5.009057 0.000000
18.131904 3.218571 0.000000
11.529747 1.325810 0.000000
10.597275 -0.481960 0.000000
29.192675 -2.936059 0.000000
5.510710 -2.496631 0.000000
28.000372 0.739859 0.000000
39.439144 4.625291 0.000000
33.057571 -1.556740 0.000000
25.483745 0.273048 0.000000
30.460217 4.176301 0.000000
46.346522 0.203001 0.000000
5.724325 -2.653257 0.000000
28.051632 -3.630010 0.000000
36.190096 -4.767655 0.000000
47.497251 1.847912 0.000000
20.747759 3.235429 0.000000
26.064255 0.731118 0.000000
23.293122 2.810915 0.000000
8.360623 4.336013 0.000000
30.950613 2.744481 0.000000
8.469368 1.864508 0.000000
24.818767 -1.929146 0.000000
20.052937 3.041378 0.000000
21.884239 -3.364716 0.000000
18.204625 -1.917335 0.000000
31.131191 -0.578557 0.000000
10.580073 -2.476545 0.000000
34.992670 0.370541 0.000000
43.024241 1.660945 0.000000
10.924191 0.110264 0.000000
1.598619 -3.502419 0.000000
39.506293 1.471571 0.000000
40.675113 -1.587660 0.000000
45.465004 2.793765 0.000000
32.419644 -0.635517 0.000000
31.774052 -0.961062 0.000000
7.370477 -1.685923 0.000000
36.243602 -0.490501 0.000000
21.558295 0.558737 0.000000
36.951115 0.186327 0.000000
15.667184 -2.462258 0.000000
39.590809 -4.259667 0.000000
41.197099 0.544401 0.000000
44.683033 2.124645 0.000000
17.134002 1.479684 0.000000
29.591739 2.832947 0.000000
22.212921 4.187412 0.000000
28.741788 3.283389 0.000000
9.545689 -2.231350 0.000000
17.900566 5.550171 0.000000
9.777779 4.955939 0.000000
2.546972 2.245494 0.000000
17.030137 1.726161 0.000000
9.770300 -3.500244 0.000000
24.787657 0.117494 0.000000
41.699737 5.542705 0.000000
26.453735 1.744750 0.000000
5.783368 4.699000 0.000000
8.622452 -4.690400 0.000000
13.407364 -2.101323 0.000000
25.479639 0.560068 0.000000
14.350302 0.989442 0.000000
20.852822 -2.043712 0.000000
5.366057 -4.361544 0.000000
40.291401 0.293440 0.000000
26.562532 -1.215570 0.000000
34.200407 5.310899 0.000000
2.877623 -2.204389 0.000000
19.279383 5.282761 0.000000
46.535209 5.405886 0.000000
10.805319 -0.709737 0.000000
10.293589 4.136010 0.000000
18.837706 3.508589 0.000000
8.977499 -0.618306 0.000000
45.229849 -0.692076 0.000000
1.595233 1.158804 0.000000
[...]
POINT_DATA 3000
SCALARS P float 1
LOOKUP_TABLE default
1112.586319
520.095106
-336.138116
-1791.546045
710.882779
823.113774
1963.572284
-609.225479
2613.013239
-65.706675
378.198558
2457.553967
-1343.337925
4990.487376
-3425.859453
5541.103888
-5648.933196
9102.394067
-11258.940835
12421.987227
-13033.091348
11370.861677
-9410.171254
7340.225327
-6891.362149
7510.100365
-7897.309039
11293.695768
-14090.533349
15923.987114
-12296.276973
8377.957772
-5220.860434
6905.303915
-3407.822865
1645.220213
1014.769875
1523.232110
1471.673023
-1222.783553
3996.501609
-5425.756990
8827.239107
-11772.582015
14734.836486
-18888.468120
15918.969898
-11580.885314
4990.743286
-435.334645
-898.487590
912.666902
-2567.055460
3057.824990
-1269.914661
1555.758081
-1194.921332
713.664382
-2787.661832
9322.408232
-16116.650436
15372.592286
-14267.977779
11663.564043
-9524.558950
8023.295764
-4168.681376
1059.944235
2503.157223
-3695.519936
1637.955042
2557.591005
-5009.724665
3633.832373
-1537.128816
1407.725185
-883.742998
-802.177499
1384.266567
-1085.244280
942.308832
555.939539
-1781.848929
2843.400371
-3270.514045
4823.227471
-5653.187267
7592.685325
-8415.436471
9174.754731
-8147.144452
6939.493260
-5576.491968
5502.216707
-4020.790813
3428.168553
-2265.616483
1264.910412
-1447.464292
1844.572875
-3284.469171
3843.330790
-7323.303392
7765.743930
-9755.867788
9013.413544
-9258.049262
6322.546927
-4794.086666
3002.175843
-1398.614910
-479.607230
1051.368929
-2039.708100
3125.857408
-4232.824437
5301.016321
-6220.248358
6263.094249
-6175.113959
5146.152047
-3199.981016
2723.750303
-1483.399006
1156.594541
-27.288161
-1092.407320
2330.365105
-3033.408534
1314.879371
-576.479088
-108.843570
532.469844
-851.651768
923.148709
-881.686357
445.622854
658.268591
-1206.529302
1859.666822
-2400.603272
2799.078492
-3516.873760
3789.866842
-4009.664403
3097.481307
-2435.552811
375.300356
3378.415794
-8381.490657
10916.877198
-16822.040484
17702.201200
-20739.611536
18162.077533
-19158.754033
17562.598258
-18101.154216
18271.300402
-19474.147655
18157.389318
-20224.927980
18323.502676
-20967.761907
17205.385963
-14959.164375
10591.555309
-13277.931720
15834.177019
-18243.202694
20792.125024
-25724.412356
24094.513474
-26873.290237
19651.672549
-20388.334180
14307.539462
-15357.945390
11498.509491
-12111.390331
10836.897426
-17132.273057
19161.934554
-27415.346109
23235.423367
-21168.990353
11933.079134
-9974.402021
7337.141859
-6662.610853
4010.541829
-6653.237301
3684.985289
-7242.228058
6208.175752
-12220.738501
1183.595799
4549.629128
-15423.699520
17806.885295
-19844.936762
16641.828054
-19167.536479
16266.448484
-17040.646931
15165.358671
-14177.848864
14098.378435
-19550.656765
23572.693661
-30963.340766
27814.723721
-28366.622027
20404.618432
-18796.934851
16511.290638
-15892.326885
10828.477394
-15488.109569
13787.187152
-13912.912583
14661.810963
-19549.384450
17475.734374
-9531.129773
3033.001272
-2741.480683
-327.332198
452.362736
85.968209
-2478.669169
-346.599005
-2868.579361
1718.303774
-1291.220823
-3672.189862
999.334241
-5240.594324
4125.920178
-6302.298246
1877.999585
-2704.125214
427.827237
-1167.935159
1690.863908
-6008.360815
7674.824145
-13092.449581
16267.585440
-19411.117570
24524.782186
-26204.340254
31704.172051
-33060.749793
34233.418894
-30395.639816
33049.886905
-26984.779802
26096.061340
-20998.570214
23907.750785
-22228.178801
24838.893409
-15526.670669
13842.620111
-6324.980403
5838.785980
-173.303619
1248.041805
964.068437
-1473.833012
49803.719094
-19977.193641
-73562.822738
-1748.181319
23560.584700
-72696.110518
62267.483141
2599.962265
32163.151470
-56116.975846
519.244972
-70029.662986
71470.360802
55984.649464
-4207.249185
-22138.383185
-52202.345852
9573.486590
1812.403676
17364.202179
-42640.165668
10290.792420
10754.756853
85728.542895
79406.006119
84317.748255
-51401.534424
72931.870501
145553.359675
39443.913288
-13090.330114
77274.258117
1355.604635
-120987.918032
1554.421289
-47309.309233
-6553.240263
-27565.984709
-4912.333817
49717.191645
54163.929112
23176.688578
-4524.672478
-18481.448436
26226.917179
26602.669805
-6458.866406
14953.120838
-63754.647497
13546.938091
57106.724555
36224.499907
-84146.956100
6200.042972
3046.345849
-15552.546003
76073.735312
37042.578922
-89607.165514
8730.166520
-47495.529798
4491.075896
15689.155970
-20825.154186
-2113.152209
93261.881020
-11117.033152
-18837.498087
381.841990
10252.137914
2311.713122
25186.391889
-20453.489707
-5830.482421
-40397.430957
38346.675441
99965.132780
-17575.290484
5994.081405
23358.571973
-11153.695165
19094.706018
-131134.146028
2414.445739
-9476.740369
-25704.263694
9026.802650
-9458.349899
-10073.971676
51653.803057
-10294.367894
17802.395548
52058.317659
-422.789135
-75185.845866
-87422.053285
86265.086123
-61830.153253
145068.737718
-72027.996918
81335.937956
-23495.274758
-23684.411801
-12119.587711
-96137.808627
112461.381559
63708.462348
-19350.251284
-132324.974520
-10351.204961
-31893.323806
-37183.446573
5834.812869
-12805.028719
30258.404510
-26470.990021
-19066.140701
-12447.074784
7083.127164
-54545.984255
-3982.632776
-44396.356190
-65653.664010
24143.825379
-113033.523113
-35000.285886
23660.762251
-28255.825817
82362.597480
1157.275630
45902.654942
-80595.188374
49258.725258
106604.911459
2085.734439
46664.948397
-6218.004018
-58177.315161
-24492.368777
143588.658451
-11738.241056
18081.717082
48586.577353
113469.164332
-22452.010751
7026.725616
10792.529251
-34443.811555
24383.999573
64113.043349
87500.520730
38236.248216
-13982.653453
-1525.086045
124388.225561
-16291.497548
14885.462675
-45616.789833
8411.870891
-106207.165276
53450.563438
-10829.145670
-39850.430783
45866.157486
-65321.935156
3662.039764
-154053.222574
26045.510314
15994.297242
1904.354732
25878.631890
-14070.121799
63556.594279
2045.236395
-9027.164021
25027.297481
7960.490276
-83564.881260
-29625.428348
-11201.483789
57333.644800
488.422248
2471.374190
-13746.186866
17564.438847
-13168.290944
-39106.823392
-31478.952398
70490.980694
46899.366784
-3830.342740
-17724.451109
-77403.453434
-117980.486541
-516.750622
-14423.048500
17934.004312
-71925.341924
5031.270402
-5818.663416
-6745.268824
-14744.960089
56.724094
-77284.422731
-63091.712354
109665.147300
25544.445521
16002.034959
5096.112066
59385.665647
74224.424339
-4040.332389
-6854.323257
42603.119992
7730.121412
-2244.102031
9011.556068
34940.869297
32789.894384
-40013.299411
1257.909886
11454.755838
54469.730330
10215.663702
60362.119597
-116676.727265
41994.912946
4747.899095
-1801.977793
-15834.513720
-6759.426613
2695.895046
74882.373987
9164.384122
18475.931959
9379.354287
-31128.693060
22626.288502
5768.216612
-64744.228574
-45850.322385
100811.486786
-13089.295634
25216.291604
-20544.921967
34597.184571
-20296.258381
-98068.195826
6073.787711
-5128.987417
70298.525766
1947.481138
-102141.301433
-37304.582423
-2699.090373
847.809080
62354.852482
18141.866935
10195.864188
22995.529544
-7857.336386
13231.216237
-13245.698024
6834.963732
4416.712593
-47228.061590
98450.058736
1961.211548
-15324.794849
-1778.896300
11264.024539
14087.336427
9648.539703
60887.834088
-77411.835885
-7360.646369
-21037.930040
15821.193883
-29592.683250
-3757.150041
-23331.814544
70418.477983
-17228.909062
-16258.166805
-5299.689999
6075.525330
-10085.420693
-108841.293157
-2105.956341
105865.462024
9649.987750
24467.378404
-90914.225859
-53410.381433
-38586.271793
7616.754064
-72532.201669
-11653.593470
19492.343061
1701.738948
-2896.818161
24389.851343
-40951.896100
-87003.032264
-39140.552643
-93600.912348
44242.022753
54018.142870
10535.354537
-41463.529658
-335.629442
-50200.092047
2022.203023
-79047.176119
31779.336174
6018.467738
12517.757306
10295.982097
-34838.533082
70834.409333
-8452.162347
79708.648470
-63562.991041
3541.857433
-57377.181108
-88985.314127
45474.549886
88554.132400
1774.892728
-62107.779819
-70676.063472
-1888.507454
12709.794329
-39881.093486
51323.714331
-4821.188627
-15928.748753
-183.785330
-37065.836887
59977.640309
56465.133472
36532.343206
-35254.045903
20467.989406
-10309.220077
-7112.534813
-21022.532138
-37099.530531
22936.788501
-76561.494700
1913.580638
-23685.625682
25912.794517
-10224.269499
-11514.917293
113443.514107
-19733.883336
31509.084980
-57746.189118
-19010.944091
-5674.071923
5901.850305
-11770.806444
28771.120038
10043.289507
-4879.172922
-37468.115134
6354.592647
-13523.850454
-36658.131683
-154796.178459
48160.096059
-4631.487290
-28231.242502
-10068.459414
-19431.575189
43302.504438
3563.142369
8586.974086
18115.792479
-55885.510363
4492.711779
-74210.823013
8453.910206
-11584.705244
-22156.169342
-2512.766346
2142.146400
7067.722216
-52876.215462
18747.458009
-15042.059903
7977.814773
15162.671452
-32039.448001
8195.817050
-12094.685596
-31565.356013
-40710.252379
-9634.498472
-17416.167346
179242.370729
75116.216210
49510.790148
-4326.388649
48415.843165
112848.571163
-5203.225052
-20749.461536
-33288.612409
34036.440077
-5299.063951
-31080.485669
41826.318053
23980.117573
-6814.078042
5947.109088
-15776.563424
4180.119432
3758.401002
-4402.436802
50864.444848
-24521.053125
-32029.195775
762.377576
-81248.506583
12319.549169
-24063.084259
-21270.870116
1846.357900
-575.489880
-2917.623732
-18220.524394
-12910.054365
9569.742947
-71602.409271
-7799.184665
83898.252091
58933.559831
-22868.919117
42510.594298
11668.637201
41542.837123
-16277.041621
-16480.531445
-31294.220791
-2199.004390
-77990.290098
33831.499918
-10798.943781
137433.288936
36448.423686
-71893.192539
7385.693893
9446.262697
33670.402561
16064.301739
-43246.947432
58738.942206
-1886.051096
-17739.875420
14640.385959
-56052.316255
-49329.038017
-21936.029279
793.020902
56599.605097
62932.837489
-87533.812408
8567.412178
2546.603917
10238.850178
-75630.476673
-109179.654281
-150502.227243
36028.449932
62684.314936
-35626.841853
-906.656409
3755.130331
-20113.968631
-34481.014159
-4863.125277
117967.095157
-32207.366064
-34722.174709
14886.278751
41542.036515
52434.754371
-4128.804007
-7912.556498
-30628.041214
1252.195430
-58966.901954
-35752.274480
-1955.680898
172073.992414
-45742.284916
17382.156336
-6220.172043
-42574.547698
11754.906936
11463.671892
26089.989865
30684.770022
-15207.551145
-71926.193339
66909.617833
12161.278116
-37941.621790
-16466.075848
90685.109902
-10607.580415
30278.445982
113623.912815
-94963.036260
-19422.955911
78195.906429
-8839.411504
25920.967714
72893.428597
-126119.531938
-51304.787666
-11576.065273
-60391.734878
10328.286277
-8168.935793
-130133.430059
-55874.684750
15341.692967
-34751.122356
75150.431031
48251.044072
141167.715969
33845.812111
-25128.268743
50626.287502
-59832.979714
-2470.316124
97306.038563
-39941.430986
-117685.142493
24851.858986
-3647.835656
-51434.790848
11124.377471
-17512.477434
-29002.436353
-27399.255731
6925.306249
25237.069112
-14593.740286
109855.421809
-33719.574425
21674.303923
12019.173925
8286.001739
3618.394040
-23222.794975
-45891.032857
-28779.658804
-26685.330098
25850.971558
25611.723392
-29526.321892
-48879.117244
58793.575887
76657.199024
-737.118800
-40645.155123
-16472.367254
-20412.464606
-56315.766458
-8668.235720
13032.987795
-9616.525514
32995.674055
17906.359375
-99573.914219
-6176.897612
-1891.598942
-35165.910997
-8635.977685
144136.175795
-34984.365379
11569.217610
27609.102657
-26117.843168
15612.075361
22293.741218
-25571.935264
6249.398689
46560.441812
8615.825660
-71647.078599
70364.584279
9906.091126
4611.701838
52763.052310
-24331.892145
-116589.845904
-30685.148765
1161.890143
17977.300532
15026.014271
8841.718664
1187.719948
37739.410074
1099.474844
11770.955703
12617.507710
59105.799959
21072.821103
-21667.306082
-44638.855402
-9434.878750
-42010.090883
-11406.226786
-17440.435444
31.962456
-13212.347650
-96424.793304
3198.681593
85274.965751
115309.048137
-44173.924458
-102341.784157
-6747.742398
-91220.709268
28093.521453
-32304.673424
-81518.642638
31076.957606
27137.106757
1957.135452
44024.317940
-13930.004203
-2869.613562
-17376.719667
119109.907157
56657.110779
-121472.490660
-27989.479173
10511.749402
122386.861340
-5482.508472
-6487.191070
-2312.607050
-5522.112047
-19970.199802
-24053.342875
14080.217488
-21829.870069
-50263.021322
13459.807747
-46212.879362
6975.066631
-66444.817608
-34318.061315
-3149.503320
8256.482154
-37399.938309
-6283.793591
5066.738500
-13979.001493
23946.703613
14984.308708
-26223.127450
38858.164324
25991.538661
22951.650225
-41674.520376
65207.017754
2597.980225
-101623.617572
5375.830870
-31749.160200
-73.927112
116684.694512
14043.804523
-31065.423171
24209.299251
-25034.838300
-7457.222704
-16784.116675
115562.425367
-107449.428916
-48918.425527
-53494.741452
-72736.921259
-10799.916009
-7115.207310
-2480.404034
40397.866605
-544.180875
56040.040335
87162.990297
38709.524834
14941.229492
2746.485554
71125.876735
-35194.685493
-6458.293194
-23555.866698
-31223.714393
-102581.348685
-10188.197770
-10508.112941
83663.836632
124083.218503
-3355.208342
588.145747
-48505.069489
-11839.409588
13368.422314
18920.319888
-11089.000692
-7603.714476
-116574.253696
54518.858350
-43612.304715
41991.872145
-35060.861498
-18708.979980
-124746.889212
20167.665395
-24746.058741
-72530.053278
19084.964543
32188.878842
-10887.272424
63977.809919
102014.563297
14616.704383
-117066.619855
-14209.336104
24032.946126
49248.864956
25398.848054
8879.894469
63517.628184
21530.224911
17030.162246
-31020.512913
15223.649347
1234.065193
47078.894035
2320.472163
23532.366836
341.767163
30357.875479
32876.040546
10526.658134
-76182.950481
-62057.770430
13595.472826
-4342.727219
46129.364290
8445.664610
47738.082057
-48405.532642
7776.115074
-136721.172997
-1962.361201
-5250.898004
30977.603512
10050.084551
-78005.173672
-28098.690231
8476.894455
-33630.318474
16503.296250
19165.950049
-60631.746126
-4372.139128
-39592.914403
-24432.484513
-50840.250185
53120.406958
71589.502175
-43753.869220
57925.207818
-49248.213640
-16157.180806
1986.472946
-34653.373002
-13912.955145
-38759.218398
-58864.904316
22133.787671
-26344.597939
80713.173340
-11526.237351
-26314.926277
-25971.274640
-31812.923489
19914.201182
-13027.260906
-23974.706066
39676.157192
25005.376773
-8059.399315
-64492.600679
-3955.238196
3635.566287
4355.621910
-14185.984902
-4287.476033
-358.541799
22525.738681
9264.599663
-31328.429984
-21278.489207
-90564.837289
-145977.232585
825.422006
881.433632
-18245.180728
-1801.597887
29346.811156
40548.331349
-141736.897399
77494.614293
23902.128450
-5740.435301
-16227.133995
139397.366766
-27130.748875
-9837.741282
10784.953150
65933.762197
13511.683680
13087.970161
704.263753
34985.656396
-4357.449362
17067.284492
38629.438718
48009.157290
-17368.616203
-65259.369891
-8938.289257
2713.474109
20268.864966
25814.632153
-15659.773961
47419.268034
-18471.440175
-18608.115786
71013.741978
-16362.632861
-667.146578
7415.214170
-54390.694473
25306.810692
-4493.643578
-22581.754031
-18899.520452
-96869.355276
-25958.305043
7773.868377
-19963.629739
1534.344514
-21710.105354
4107.928073
-13475.272075
-11710.180679
39600.661123
-18673.916312
-51550.087603
19103.964800
51071.470023
998.404378
-5900.616374
-5638.565904
-11918.631630
13251.061935
40612.793056
-4752.208788
16770.614664
-74117.588012
-5115.531656
25788.511996
19263.943663
-5030.987606
-7262.249580
16645.498022
-20640.022451
15251.464261
23526.996440
-10695.288328
-4180.611064
70642.481909
1213.257718
-28827.456016
34691.245496
-33715.647216
-567.832215
71236.178328
13999.048570
25449.818602
-101672.360040
-4190.388194
-50713.258744
-18700.533311
77035.631454
142334.474440
42400.493573
2.276540
-51529.387801
4294.542666
18373.740635
-779.351518
155669.039593
39422.445045
13399.307984
-60799.470044
1285.271391
-624.493502
-27582.685430
3890.144420
-57092.633560
59175.154116
24519.855994
-11327.638269
-14166.156246
-109748.070333
-97835.823859
-14109.850552
-30839.801578
-84889.547682
13799.044264
-19648.166140
-65716.822249
34191.620303
16501.328813
-3901.111482
5339.189422
17565.072594
37281.646429
14531.891266
5823.223553
-30411.872564
21266.401508
-4048.807096
37806.106483
-33350.074935
-25341.162314
-7634.772944
4520.229404
6576.823251
27644.473555
102840.153053
3447.968298
-38655.624498
19051.273276
27635.624208
9370.881013
-18342.992231
5339.466092
19686.539467
5001.387387
34681.565907
-11810.881620
-155473.341664
-103660.128377
-10596.287068
-62316.105343
-39058.195202
44645.664701
6829.227674
-6097.086190
89148.001500
-2084.145846
-1780.682750
3479.281734
3924.521140
-74366.517196
-15310.188026
-6082.847190
21564.711225
-10862.793118
-17576.466852
-31627.820021
24776.552973
-4758.136019
-42764.463123
68811.912864
-290.655463
9.671132
73809.858668
16097.297926
-1468.635040
-71425.300812
-58900.674397
16610.708918
25494.367357
-26882.564863
107225.247784
11795.783339
15766.131901
22662.897766
18528.262635
-26785.076143
-40252.052103
17787.192543
-11924.118415
-94793.208363
-99406.366561
1000.646777
6212.163545
-13654.156043
60736.681528
-17380.417117
42659.349072
12668.647360
-47685.003384
27448.530899
106540.864548
57364.105768
33093.253222
-21804.660956
-40694.614092
65827.876591
1942.351563
34665.512131
97567.253460
8126.768290
-2293.130134
-12284.898099
-12479.874175
-14998.107108
39866.151369
8808.429130
23039.099772
-17514.349649
12457.043584
20924.803092
215156.072921
-455.062459
-55309.257659
-55950.608300
24133.482997
-31439.524546
-56632.360774
-17449.886714
16568.646553
18422.642562
-30871.335051
9037.512145
59212.828879
19021.450537
1040.089147
-7992.564939
18775.513750
-57669.998582
-117001.485090
-121115.045176
-21908.710594
-11971.929671
-34580.831103
-18910.183609
-11361.100230
18809.988075
56967.830877
-27037.067962
-9712.743211
74042.140412
15412.913441
-7645.862361
-5512.804332
-106001.981572
37476.895799
28636.644368
-7746.249301
4489.067688
99284.775130
57838.620085
4344.661600
9895.193672
14977.758002
75399.194675
-3957.021855
60989.451640
59249.095828
115603.574062
-18094.991512
58521.839676
-11413.093353
-77701.448825
-10011.874662
-20081.187315
11914.764726
-30077.998891
-7173.465892
31575.463805
-4727.239746
49342.831072
10340.359453
25328.854135
-4985.498366
-8645.625891
-1526.127261
19561.988841
-27500.575910
-20034.265423
19586.267661
-48138.952067
-15246.560834
7806.387003
43312.036142
-51360.016567
-11063.109164
-49853.464837
33656.407472
-113019.734481
10395.307131
-22132.540286
22651.456792
-58422.675440
21018.981599
23528.638354
-106946.099500
-21697.374384
-37931.946854
121884.576580
-68432.832690
-22516.789531
46228.366902
18283.607381
-19916.395183
6136.817566
43404.874394
42392.602751
14640.552453
-40877.095654
42178.417834
-239.071186
-8120.111920
-4048.153236
-16001.780651
53126.470179
-28573.175624
10577.449170
107072.391138
-3245.528547
36507.432098
34961.718198
-24485.683480
-15752.272629
-10077.145478
52760.386159
-8180.048853
130786.102290
-2976.864722
-108141.730886
-36063.549467
-611.410953
40208.573988
-13342.949687
4377.327916
-15669.993477
-11539.712869
45284.912343
-26195.635063
-5367.169567
66249.595236
19266.743780
8709.524740
-63135.257380
-53539.910650
10805.709219
1691.611349
-73631.190883
-12033.950799
10148.643610
-4171.826070
-1311.978561
-2413.943562
31926.908496
-55210.910023
-29437.533215
48793.552198
33603.129211
-1663.730911
16088.197834
66.571296
2799.620590
-10045.803425
17027.939814
-7524.812266
-7429.657386
13805.620905
-19352.972090
-4762.132155
55010.642710
9264.341384
-21811.181508
-9112.524969
56093.213537
3992.835364
-65392.090631
-18884.024285
-39135.879070
-55254.060555
-23396.058078
19593.482625
-12097.530953
-12866.599042
2149.155138
14478.776995
18710.906030
195.300797
4050.988000
-9541.755694
-20506.818526
8053.290459
54869.446309
-35330.960858
-2762.632640
-82488.456511
24466.882307
4229.217836
-52117.559509
89037.278670
-35676.151355
15120.134758
18844.536854
30541.944919
-87049.743176
-11653.828620
13903.775694
-45211.740038
-44550.001997
52655.054240
-6526.395070
25787.340841
54419.012892
-7198.111767
34141.702666
75059.020732
-84217.693195