# vtk DataFile Version 2.0
cantilever_tri3_mix
ASCII
DATASET POLYDATA
POINTS 297 float
0.000000 -6.000000 0.000000
48.000000 -6.000000 0.000000
48.000000 6.000000 0.000000
0.000000 6.000000 0.000000
1.500000 -6.000000 0.000000
3.000000 -6.000000 0.000000
4.500000 -6.000000 0.000000
6.000000 -6.000000 0.000000
7.500000 -6.000000 0.000000
9.000000 -6.000000 0.000000
10.500000 -6.000000 0.000000
12.000000 -6.000000 0.000000
13.500000 -6.000000 0.000000
15.000000 -6.000000 0.000000
16.500000 -6.000000 0.000000
18.000000 -6.000000 0.000000
19.500000 -6.000000 0.000000
21.000000 -6.000000 0.000000
22.500000 -6.000000 0.000000
24.000000 -6.000000 0.000000
25.500000 -6.000000 0.000000
27.000000 -6.000000 0.000000
28.500000 -6.000000 0.000000
30.000000 -6.000000 0.000000
31.500000 -6.000000 0.000000
33.000000 -6.000000 0.000000
34.500000 -6.000000 0.000000
36.000000 -6.000000 0.000000
37.500000 -6.000000 0.000000
39.000000 -6.000000 0.000000
40.500000 -6.000000 0.000000
42.000000 -6.000000 0.000000
43.500000 -6.000000 0.000000
45.000000 -6.000000 0.000000
46.500000 -6.000000 0.000000
48.000000 -4.500000 0.000000
48.000000 -3.000000 0.000000
48.000000 -1.500000 0.000000
48.000000 -0.000000 0.000000
48.000000 1.500000 0.000000
48.000000 3.000000 0.000000
48.000000 4.500000 0.000000
46.500000 6.000000 0.000000
45.000000 6.000000 0.000000
43.500000 6.000000 0.000000
42.000000 6.000000 0.000000
40.500000 6.000000 0.000000
39.000000 6.000000 0.000000
37.500000 6.000000 0.000000
36.000000 6.000000 0.000000
34.500000 6.000000 0.000000
33.000000 6.000000 0.000000
31.500000 6.000000 0.000000
30.000000 6.000000 0.000000
28.500000 6.000000 0.000000
27.000000 6.000000 0.000000
25.500000 6.000000 0.000000
24.000000 6.000000 0.000000
22.500000 6.000000 0.000000
21.000000 6.000000 0.000000
19.500000 6.000000 0.000000
18.000000 6.000000 0.000000
16.500000 6.000000 0.000000
15.000000 6.000000 0.000000
13.500000 6.000000 0.000000
12.000000 6.000000 0.000000
10.500000 6.000000 0.000000
9.000000 6.000000 0.000000
7.500000 6.000000 0.000000
6.000000 6.000000 0.000000
4.500000 6.000000 0.000000
3.000000 6.000000 0.000000
1.500000 6.000000 0.000000
0.000000 4.500000 0.000000
0.000000 3.000000 0.000000
0.000000 1.500000 0.000000
0.000000 0.000000 0.000000
0.000000 -1.500000 0.000000
0.000000 -3.000000 0.000000
0.000000 -4.500000 0.000000
1.500000 -4.500000 0.000000
1.500000 -3.000000 0.000000
1.500000 -1.500000 0.000000
1.500000 0.000000 0.000000
1.500000 1.500000 0.000000
1.500000 3.000000 0.000000
1.500000 4.500000 0.000000
3.000000 -4.500000 0.000000
3.000000 -3.000000 0.000000
3.000000 -1.500000 0.000000
3.000000 0.000000 0.000000
3.000000 1.500000 0.000000
3.000000 3.000000 0.000000
3.000000 4.500000 0.000000
4.500000 -4.500000 0.000000
4.500000 -3.000000 0.000000
4.500000 -1.500000 0.000000
4.500000 0.000000 0.000000
4.500000 1.500000 0.000000
4.500000 3.000000 0.000000
4.500000 4.500000 0.000000
6.000000 -4.500000 0.000000
6.000000 -3.000000 0.000000
6.000000 -1.500000 0.000000
6.000000 0.000000 0.000000
6.000000 1.500000 0.000000
6.000000 3.000000 0.000000
6.000000 4.500000 0.000000
7.500000 -4.500000 0.000000
7.500000 -3.000000 0.000000
7.500000 -1.500000 0.000000
7.500000 0.000000 0.000000
7.500000 1.500000 0.000000
7.500000 3.000000 0.000000
7.500000 4.500000 0.000000
9.000000 -4.500000 0.000000
9.000000 -3.000000 0.000000
9.000000 -1.500000 0.000000
9.000000 0.000000 0.000000
9.000000 1.500000 0.000000
9.000000 3.000000 0.000000
9.000000 4.500000 0.000000
10.500000 -4.500000 0.000000
10.500000 -3.000000 0.000000
10.500000 -1.500000 0.000000
10.500000 0.000000 0.000000
10.500000 1.500000 0.000000
10.500000 3.000000 0.000000
10.500000 4.500000 0.000000
12.000000 -4.500000 0.000000
12.000000 -3.000000 0.000000
12.000000 -1.500000 0.000000
12.000000 0.000000 0.000000
12.000000 1.500000 0.000000
12.000000 3.000000 0.000000
12.000000 4.500000 0.000000
13.500000 -4.500000 0.000000
13.500000 -3.000000 0.000000
13.500000 -1.500000 0.000000
13.500000 0.000000 0.000000
13.500000 1.500000 0.000000
13.500000 3.000000 0.000000
13.500000 4.500000 0.000000
15.000000 -4.500000 0.000000
15.000000 -3.000000 0.000000
15.000000 -1.500000 0.000000
15.000000 0.000000 0.000000
15.000000 1.500000 0.000000
15.000000 3.000000 0.000000
15.000000 4.500000 0.000000
16.500000 -4.500000 0.000000
16.500000 -3.000000 0.000000
16.500000 -1.500000 0.000000
16.500000 0.000000 0.000000
16.500000 1.500000 0.000000
16.500000 3.000000 0.000000
16.500000 4.500000 0.000000
18.000000 -4.500000 0.000000
18.000000 -3.000000 0.000000
18.000000 -1.500000 0.000000
18.000000 0.000000 0.000000
18.000000 1.500000 0.000000
18.000000 3.000000 0.000000
18.000000 4.500000 0.000000
19.500000 -4.500000 0.000000
19.500000 -3.000000 0.000000
19.500000 -1.500000 0.000000
19.500000 0.000000 0.000000
19.500000 1.500000 0.000000
19.500000 3.000000 0.000000
19.500000 4.500000 0.000000
21.000000 -4.500000 0.000000
21.000000 -3.000000 0.000000
21.000000 -1.500000 0.000000
21.000000 0.000000 0.000000
21.000000 1.500000 0.000000
21.000000 3.000000 0.000000
21.000000 4.500000 0.000000
22.500000 -4.500000 0.000000
22.500000 -3.000000 0.000000
22.500000 -1.500000 0.000000
22.500000 0.000000 0.000000
22.500000 1.500000 0.000000
22.500000 3.000000 0.000000
22.500000 4.500000 0.000000
24.000000 -4.500000 0.000000
24.000000 -3.000000 0.000000
24.000000 -1.500000 0.000000
24.000000 0.000000 0.000000
24.000000 1.500000 0.000000
24.000000 3.000000 0.000000
24.000000 4.500000 0.000000
25.500000 -4.500000 0.000000
25.500000 -3.000000 0.000000
25.500000 -1.500000 0.000000
25.500000 -0.000000 0.000000
25.500000 1.500000 0.000000
25.500000 3.000000 0.000000
25.500000 4.500000 0.000000
27.000000 -4.500000 0.000000
27.000000 -3.000000 0.000000
27.000000 -1.500000 0.000000
27.000000 -0.000000 0.000000
27.000000 1.500000 0.000000
27.000000 3.000000 0.000000
27.000000 4.500000 0.000000
28.500000 -4.500000 0.000000
28.500000 -3.000000 0.000000
28.500000 -1.500000 0.000000
28.500000 -0.000000 0.000000
28.500000 1.500000 0.000000
28.500000 3.000000 0.000000
28.500000 4.500000 0.000000
30.000000 -4.500000 0.000000
30.000000 -3.000000 0.000000
30.000000 -1.500000 0.000000
30.000000 -0.000000 0.000000
30.000000 1.500000 0.000000
30.000000 3.000000 0.000000
30.000000 4.500000 0.000000
31.500000 -4.500000 0.000000
31.500000 -3.000000 0.000000
31.500000 -1.500000 0.000000
31.500000 -0.000000 0.000000
31.500000 1.500000 0.000000
31.500000 3.000000 0.000000
31.500000 4.500000 0.000000
33.000000 -4.500000 0.000000
33.000000 -3.000000 0.000000
33.000000 -1.500000 0.000000
33.000000 -0.000000 0.000000
33.000000 1.500000 0.000000
33.000000 3.000000 0.000000
33.000000 4.500000 0.000000
34.500000 -4.500000 0.000000
34.500000 -3.000000 0.000000
34.500000 -1.500000 0.000000
34.500000 -0.000000 0.000000
34.500000 1.500000 0.000000
34.500000 3.000000 0.000000
34.500000 4.500000 0.000000
36.000000 -4.500000 0.000000
36.000000 -3.000000 0.000000
36.000000 -1.500000 0.000000
36.000000 -0.000000 0.000000
36.000000 1.500000 0.000000
36.000000 3.000000 0.000000
36.000000 4.500000 0.000000
37.500000 -4.500000 0.000000
37.500000 -3.000000 0.000000
37.500000 -1.500000 0.000000
37.500000 -0.000000 0.000000
37.500000 1.500000 0.000000
37.500000 3.000000 0.000000
37.500000 4.500000 0.000000
39.000000 -4.500000 0.000000
39.000000 -3.000000 0.000000
39.000000 -1.500000 0.000000
39.000000 -0.000000 0.000000
39.000000 1.500000 0.000000
39.000000 3.000000 0.000000
39.000000 4.500000 0.000000
40.500000 -4.500000 0.000000
40.500000 -3.000000 0.000000
40.500000 -1.500000 0.000000
40.500000 -0.000000 0.000000
40.500000 1.500000 0.000000
40.500000 3.000000 0.000000
40.500000 4.500000 0.000000
42.000000 -4.500000 0.000000
42.000000 -3.000000 0.000000
42.000000 -1.500000 0.000000
42.000000 -0.000000 0.000000
42.000000 1.500000 0.000000
42.000000 3.000000 0.000000
42.000000 4.500000 0.000000
43.500000 -4.500000 0.000000
43.500000 -3.000000 0.000000
43.500000 -1.500000 0.000000
43.500000 -0.000000 0.000000
43.500000 1.500000 0.000000
43.500000 3.000000 0.000000
43.500000 4.500000 0.000000
45.000000 -4.500000 0.000000
45.000000 -3.000000 0.000000
45.000000 -1.500000 0.000000
45.000000 -0.000000 0.000000
45.000000 1.500000 0.000000
45.000000 3.000000 0.000000
45.000000 4.500000 0.000000
46.500000 -4.500000 0.000000
46.500000 -3.000000 0.000000
46.500000 -1.500000 0.000000
46.500000 -0.000000 0.000000
46.500000 1.500000 0.000000
46.500000 3.000000 0.000000
46.500000 4.500000 0.000000
POLYGONS 512 2048
3 0 4 79
3 79 4 80
3 79 80 78
3 78 80 81
3 78 81 77
3 77 81 82
3 77 82 76
3 76 82 83
3 76 83 75
3 75 83 84
3 75 84 74
3 74 84 85
3 74 85 73
3 73 85 86
3 73 86 3
3 3 86 72
3 4 5 80
3 80 5 87
3 80 87 81
3 81 87 88
3 81 88 82
3 82 88 89
3 82 89 83
3 83 89 90
3 83 90 84
3 84 90 91
3 84 91 85
3 85 91 92
3 85 92 86
3 86 92 93
3 86 93 72
3 72 93 71
3 5 6 87
3 87 6 94
3 87 94 88
3 88 94 95
3 88 95 89
3 89 95 96
3 89 96 90
3 90 96 97
3 90 97 91
3 91 97 98
3 91 98 92
3 92 98 99
3 92 99 93
3 93 99 100
3 93 100 71
3 71 100 70
3 6 7 94
3 94 7 101
3 94 101 95
3 95 101 102
3 95 102 96
3 96 102 103
3 96 103 97
3 97 103 104
3 97 104 98
3 98 104 105
3 98 105 99
3 99 105 106
3 99 106 100
3 100 106 107
3 100 107 70
3 70 107 69
3 7 8 101
3 101 8 108
3 101 108 102
3 102 108 109
3 102 109 103
3 103 109 110
3 103 110 104
3 104 110 111
3 104 111 105
3 105 111 112
3 105 112 106
3 106 112 113
3 106 113 107
3 107 113 114
3 107 114 69
3 69 114 68
3 8 9 108
3 108 9 115
3 108 115 109
3 109 115 116
3 109 116 110
3 110 116 117
3 110 117 111
3 111 117 118
3 111 118 112
3 112 118 119
3 112 119 113
3 113 119 120
3 113 120 114
3 114 120 121
3 114 121 68
3 68 121 67
3 9 10 115
3 115 10 122
3 115 122 116
3 116 122 123
3 116 123 117
3 117 123 124
3 117 124 118
3 118 124 125
3 118 125 119
3 119 125 126
3 119 126 120
3 120 126 127
3 120 127 121
3 121 127 128
3 121 128 67
3 67 128 66
3 10 11 122
3 122 11 129
3 122 129 123
3 123 129 130
3 123 130 124
3 124 130 131
3 124 131 125
3 125 131 132
3 125 132 126
3 126 132 133
3 126 133 127
3 127 133 134
3 127 134 128
3 128 134 135
3 128 135 66
3 66 135 65
3 11 12 129
3 129 12 136
3 129 136 130
3 130 136 137
3 130 137 131
3 131 137 138
3 131 138 132
3 132 138 139
3 132 139 133
3 133 139 140
3 133 140 134
3 134 140 141
3 134 141 135
3 135 141 142
3 135 142 65
3 65 142 64
3 12 13 136
3 136 13 143
3 136 143 137
3 137 143 144
3 137 144 138
3 138 144 145
3 138 145 139
3 139 145 146
3 139 146 140
3 140 146 147
3 140 147 141
3 141 147 148
3 141 148 142
3 142 148 149
3 142 149 64
3 64 149 63
3 13 14 143
3 143 14 150
3 143 150 144
3 144 150 151
3 144 151 145
3 145 151 152
3 145 152 146
3 146 152 153
3 146 153 147
3 147 153 154
3 147 154 148
3 148 154 155
3 148 155 149
3 149 155 156
3 149 156 63
3 63 156 62
3 14 15 150
3 150 15 157
3 150 157 151
3 151 157 158
3 151 158 152
3 152 158 159
3 152 159 153
3 153 159 160
3 153 160 154
3 154 160 161
3 154 161 155
3 155 161 162
3 155 162 156
3 156 162 163
3 156 163 62
3 62 163 61
3 15 16 157
3 157 16 164
3 157 164 158
3 158 164 165
3 158 165 159
3 159 165 166
3 159 166 160
3 160 166 167
3 160 167 161
3 161 167 168
3 161 168 162
3 162 168 169
3 162 169 163
3 163 169 170
3 163 170 61
3 61 170 60
3 16 17 164
3 164 17 171
3 164 171 165
3 165 171 172
3 165 172 166
3 166 172 173
3 166 173 167
3 167 173 174
3 167 174 168
3 168 174 175
3 168 175 169
3 169 175 176
3 169 176 170
3 170 176 177
3 170 177 60
3 60 177 59
3 17 18 171
3 171 18 178
3 171 178 172
3 172 178 179
3 172 179 173
3 173 179 180
3 173 180 174
3 174 180 181
3 174 181 175
3 175 181 182
3 175 182 176
3 176 182 183
3 176 183 177
3 177 183 184
3 177 184 59
3 59 184 58
3 18 19 178
3 178 19 185
3 178 185 179
3 179 185 186
3 179 186 180
3 180 186 187
3 180 187 181
3 181 187 188
3 181 188 182
3 182 188 189
3 182 189 183
3 183 189 190
3 183 190 184
3 184 190 191
3 184 191 58
3 58 191 57
3 19 20 185
3 185 20 192
3 185 192 186
3 186 192 193
3 186 193 187
3 187 193 194
3 187 194 188
3 188 194 195
3 188 195 189
3 189 195 196
3 189 196 190
3 190 196 197
3 190 197 191
3 191 197 198
3 191 198 57
3 57 198 56
3 20 21 192
3 192 21 199
3 192 199 193
3 193 199 200
3 193 200 194
3 194 200 201
3 194 201 195
3 195 201 202
3 195 202 196
3 196 202 203
3 196 203 197
3 197 203 204
3 197 204 198
3 198 204 205
3 198 205 56
3 56 205 55
3 21 22 199
3 199 22 206
3 199 206 200
3 200 206 207
3 200 207 201
3 201 207 208
3 201 208 202
3 202 208 209
3 202 209 203
3 203 209 210
3 203 210 204
3 204 210 211
3 204 211 205
3 205 211 212
3 205 212 55
3 55 212 54
3 22 23 206
3 206 23 213
3 206 213 207
3 207 213 214
3 207 214 208
3 208 214 215
3 208 215 209
3 209 215 216
3 209 216 210
3 210 216 217
3 210 217 211
3 211 217 218
3 211 218 212
3 212 218 219
3 212 219 54
3 54 219 53
3 23 24 213
3 213 24 220
3 213 220 214
3 214 220 221
3 214 221 215
3 215 221 222
3 215 222 216
3 216 222 223
3 216 223 217
3 217 223 224
3 217 224 218
3 218 224 225
3 218 225 219
3 219 225 226
3 219 226 53
3 53 226 52
3 24 25 220
3 220 25 227
3 220 227 221
3 221 227 228
3 221 228 222
3 222 228 229
3 222 229 223
3 223 229 230
3 223 230 224
3 224 230 231
3 224 231 225
3 225 231 232
3 225 232 226
3 226 232 233
3 226 233 52
3 52 233 51
3 25 26 227
3 227 26 234
3 227 234 228
3 228 234 235
3 228 235 229
3 229 235 236
3 229 236 230
3 230 236 237
3 230 237 231
3 231 237 238
3 231 238 232
3 232 238 239
3 232 239 233
3 233 239 240
3 233 240 51
3 51 240 50
3 26 27 234
3 234 27 241
3 234 241 235
3 235 241 242
3 235 242 236
3 236 242 243
3 236 243 237
3 237 243 244
3 237 244 238
3 238 244 245
3 238 245 239
3 239 245 246
3 239 246 240
3 240 246 247
3 240 247 50
3 50 247 49
3 27 28 241
3 241 28 248
3 241 248 242
3 242 248 249
3 242 249 243
3 243 249 250
3 243 250 244
3 244 250 251
3 244 251 245
3 245 251 252
3 245 252 246
3 246 252 253
3 246 253 247
3 247 253 254
3 247 254 49
3 49 254 48
3 28 29 248
3 248 29 255
3 248 255 249
3 249 255 256
3 249 256 250
3 250 256 257
3 250 257 251
3 251 257 258
3 251 258 252
3 252 258 259
3 252 259 253
3 253 259 260
3 253 260 254
3 254 260 261
3 254 261 48
3 48 261 47
3 29 30 255
3 255 30 262
3 255 262 256
3 256 262 263
3 256 263 257
3 257 263 264
3 257 264 258
3 258 264 265
3 258 265 259
3 259 265 266
3 259 266 260
3 260 266 267
3 260 267 261
3 261 267 268
3 261 268 47
3 47 268 46
3 30 31 262
3 262 31 269
3 262 269 263
3 263 269 270
3 263 270 264
3 264 270 271
3 264 271 265
3 265 271 272
3 265 272 266
3 266 272 273
3 266 273 267
3 267 273 274
3 267 274 268
3 268 274 275
3 268 275 46
3 46 275 45
3 31 32 269
3 269 32 276
3 269 276 270
3 270 276 277
3 270 277 271
3 271 277 278
3 271 278 272
3 272 278 279
3 272 279 273
3 273 279 280
3 273 280 274
3 274 280 281
3 274 281 275
3 275 281 282
3 275 282 45
3 45 282 44
3 32 33 276
3 276 33 283
3 276 283 277
3 277 283 284
3 277 284 278
3 278 284 285
3 278 285 279
3 279 285 286
3 279 286 280
3 280 286 287
3 280 287 281
3 281 287 288
3 281 288 282
3 282 288 289
3 282 289 44
3 44 289 43
3 33 34 283
3 283 34 290
3 283 290 284
3 284 290 291
3 284 291 285
3 285 291 292
3 285 292 286
3 286 292 293
3 286 293 287
3 287 293 294
3 287 294 288
3 288 294 295
3 288 295 289
3 289 295 296
3 289 296 43
3 43 296 42
3 34 1 290
3 290 1 35
3 290 35 291
3 291 35 36
3 291 36 292
3 292 36 37
3 292 37 293
3 293 37 38
3 293 38 294
3 294 38 39
3 294 39 295
3 295 39 40
3 295 40 296
3 296 40 41
3 296 41 42
3 42 41 2
POINT_DATA 297
SCALARS P float 1
LOOKUP_TABLE default
2608.193609
0.998080
0.153021
-1732.136341
691.481264
832.239454
859.117443
857.130872
837.655452
810.945660
781.250324
750.481066
719.360040
688.138584
656.894005
625.646481
594.398408
563.149966
531.900945
500.651403
469.401530
438.151483
406.901375
375.651262
344.401169
313.151101
281.901056
250.651039
219.401037
188.151131
156.901026
125.651968
94.398693
63.162952
31.867787
0.591563
0.657099
0.646047
0.650167
0.653029
0.648334
0.710050
-30.460961
-61.856897
-93.091457
-124.348825
-155.598312
-186.848906
-218.098933
-249.348969
-280.598949
-311.848906
-343.098838
-374.348745
-405.598634
-436.848533
-468.098531
-499.348832
-530.599881
-561.852572
-593.108547
-624.370535
-655.641923
-686.924021
-718.201426
-749.409732
-780.292172
-810.272943
-837.283633
-859.112062
-861.325312
-857.102150
-728.159190
-1260.582363
-817.771914
-417.676520
3.411711
432.808500
849.322740
1108.306282
960.567043
654.346873
347.305796
6.237477
-335.624357
-652.557689
-811.949463
711.921269
542.873886
283.993017
4.393525
-272.647854
-532.382205
-774.551152
674.225130
473.743625
247.617820
2.637204
-243.135591
-464.461904
-664.414419
650.445242
443.000159
226.125550
2.439682
-223.523376
-444.431499
-652.548071
629.839626
423.050358
213.479348
1.193757
-210.696926
-420.718436
-628.167046
608.322070
406.569092
204.266514
0.899079
-202.616720
-405.291780
-607.218935
585.874738
390.946497
196.006038
0.850740
-194.384728
-389.517902
-584.593126
562.869399
375.468838
188.118089
0.716801
-186.703193
-374.132118
-561.632841
539.603568
359.934823
180.315856
0.693869
-178.947327
-358.621405
-538.356239
516.232728
344.358540
172.509670
0.666580
-171.186284
-343.063302
-514.975335
492.819557
328.756665
164.705121
0.656668
-163.397495
-327.464915
-491.548755
469.391733
313.141265
156.895575
0.651320
-155.595973
-311.849602
-468.109838
445.958736
297.520851
149.084907
0.649504
-147.787331
-296.226798
-444.668445
422.523553
281.898076
141.273483
0.649144
-139.975758
-280.601563
-421.227812
399.087367
266.274342
133.461788
0.649421
-132.163078
-264.975760
-397.788327
375.650583
250.650093
125.649893
0.649858
-124.350127
-249.350043
-374.349733
352.213443
235.025546
117.837834
0.650262
-116.537205
-233.724545
-350.911695
328.776097
219.400807
110.025635
0.650570
-108.724393
-218.099244
-327.473964
305.338641
203.775950
102.213327
0.650780
-100.911689
-202.474078
-304.036388
281.901135
188.151021
94.400943
0.650913
-93.099066
-186.848994
-280.598880
258.463612
172.526053
86.588510
0.650993
-85.286494
-171.223954
-257.161396
235.026090
156.901069
78.776051
0.651044
-77.473950
-155.598934
-233.723915
211.588576
141.276079
70.963577
0.651075
-69.661422
-139.973917
-210.286423
188.151085
125.651107
63.151117
0.651121
-61.848883
-124.348894
-186.848914
164.713580
110.026097
55.338591
0.651104
-54.036354
-108.723835
-163.411374
141.276264
94.401329
47.526336
0.651221
-46.223860
-93.098792
-139.973728
117.838326
78.775650
39.713215
0.651185
-38.411222
-77.473699
-116.536107
94.403460
63.153774
31.901997
0.650430
-30.598866
-61.848726
-93.097784
70.956271
47.519676
24.089997
0.651612
-22.787694
-46.223090
-69.661480
47.563995
31.909286
16.268868
0.652868
-14.975209
-30.604945
-46.212624
23.991424
16.311980
8.453690
0.652285
-7.163310
-14.970900
-22.850259
