# vtk DataFile Version 2.0
cantilever_quad4_mix
ASCII
DATASET POLYDATA
POINTS 297 float
0.000000 -6.000000 0.000000
48.000000 -6.000000 0.000000
48.000000 6.000000 0.000000
0.000000 6.000000 0.000000
1.500000 -6.000000 0.000000
3.000000 -6.000000 0.000000
4.500000 -6.000000 0.000000
6.000000 -6.000000 0.000000
7.500000 -6.000000 0.000000
9.000000 -6.000000 0.000000
10.500000 -6.000000 0.000000
12.000000 -6.000000 0.000000
13.500000 -6.000000 0.000000
15.000000 -6.000000 0.000000
16.500000 -6.000000 0.000000
18.000000 -6.000000 0.000000
19.500000 -6.000000 0.000000
21.000000 -6.000000 0.000000
22.500000 -6.000000 0.000000
24.000000 -6.000000 0.000000
25.500000 -6.000000 0.000000
27.000000 -6.000000 0.000000
28.500000 -6.000000 0.000000
30.000000 -6.000000 0.000000
31.500000 -6.000000 0.000000
33.000000 -6.000000 0.000000
34.500000 -6.000000 0.000000
36.000000 -6.000000 0.000000
37.500000 -6.000000 0.000000
39.000000 -6.000000 0.000000
40.500000 -6.000000 0.000000
42.000000 -6.000000 0.000000
43.500000 -6.000000 0.000000
45.000000 -6.000000 0.000000
46.500000 -6.000000 0.000000
48.000000 -4.500000 0.000000
48.000000 -3.000000 0.000000
48.000000 -1.500000 0.000000
48.000000 -0.000000 0.000000
48.000000 1.500000 0.000000
48.000000 3.000000 0.000000
48.000000 4.500000 0.000000
46.500000 6.000000 0.000000
45.000000 6.000000 0.000000
43.500000 6.000000 0.000000
42.000000 6.000000 0.000000
40.500000 6.000000 0.000000
39.000000 6.000000 0.000000
37.500000 6.000000 0.000000
36.000000 6.000000 0.000000
34.500000 6.000000 0.000000
33.000000 6.000000 0.000000
31.500000 6.000000 0.000000
30.000000 6.000000 0.000000
28.500000 6.000000 0.000000
27.000000 6.000000 0.000000
25.500000 6.000000 0.000000
24.000000 6.000000 0.000000
22.500000 6.000000 0.000000
21.000000 6.000000 0.000000
19.500000 6.000000 0.000000
18.000000 6.000000 0.000000
16.500000 6.000000 0.000000
15.000000 6.000000 0.000000
13.500000 6.000000 0.000000
12.000000 6.000000 0.000000
10.500000 6.000000 0.000000
9.000000 6.000000 0.000000
7.500000 6.000000 0.000000
6.000000 6.000000 0.000000
4.500000 6.000000 0.000000
3.000000 6.000000 0.000000
1.500000 6.000000 0.000000
0.000000 4.500000 0.000000
0.000000 3.000000 0.000000
0.000000 1.500000 0.000000
0.000000 0.000000 0.000000
0.000000 -1.500000 0.000000
0.000000 -3.000000 0.000000
0.000000 -4.500000 0.000000
1.500000 -4.500000 0.000000
1.500000 -3.000000 0.000000
1.500000 -1.500000 0.000000
1.500000 0.000000 0.000000
1.500000 1.500000 0.000000
1.500000 3.000000 0.000000
1.500000 4.500000 0.000000
3.000000 -4.500000 0.000000
3.000000 -3.000000 0.000000
3.000000 -1.500000 0.000000
3.000000 0.000000 0.000000
3.000000 1.500000 0.000000
3.000000 3.000000 0.000000
3.000000 4.500000 0.000000
4.500000 -4.500000 0.000000
4.500000 -3.000000 0.000000
4.500000 -1.500000 0.000000
4.500000 0.000000 0.000000
4.500000 1.500000 0.000000
4.500000 3.000000 0.000000
4.500000 4.500000 0.000000
6.000000 -4.500000 0.000000
6.000000 -3.000000 0.000000
6.000000 -1.500000 0.000000
6.000000 0.000000 0.000000
6.000000 1.500000 0.000000
6.000000 3.000000 0.000000
6.000000 4.500000 0.000000
7.500000 -4.500000 0.000000
7.500000 -3.000000 0.000000
7.500000 -1.500000 0.000000
7.500000 0.000000 0.000000
7.500000 1.500000 0.000000
7.500000 3.000000 0.000000
7.500000 4.500000 0.000000
9.000000 -4.500000 0.000000
9.000000 -3.000000 0.000000
9.000000 -1.500000 0.000000
9.000000 0.000000 0.000000
9.000000 1.500000 0.000000
9.000000 3.000000 0.000000
9.000000 4.500000 0.000000
10.500000 -4.500000 0.000000
10.500000 -3.000000 0.000000
10.500000 -1.500000 0.000000
10.500000 0.000000 0.000000
10.500000 1.500000 0.000000
10.500000 3.000000 0.000000
10.500000 4.500000 0.000000
12.000000 -4.500000 0.000000
12.000000 -3.000000 0.000000
12.000000 -1.500000 0.000000
12.000000 0.000000 0.000000
12.000000 1.500000 0.000000
12.000000 3.000000 0.000000
12.000000 4.500000 0.000000
13.500000 -4.500000 0.000000
13.500000 -3.000000 0.000000
13.500000 -1.500000 0.000000
13.500000 0.000000 0.000000
13.500000 1.500000 0.000000
13.500000 3.000000 0.000000
13.500000 4.500000 0.000000
15.000000 -4.500000 0.000000
15.000000 -3.000000 0.000000
15.000000 -1.500000 0.000000
15.000000 0.000000 0.000000
15.000000 1.500000 0.000000
15.000000 3.000000 0.000000
15.000000 4.500000 0.000000
16.500000 -4.500000 0.000000
16.500000 -3.000000 0.000000
16.500000 -1.500000 0.000000
16.500000 0.000000 0.000000
16.500000 1.500000 0.000000
16.500000 3.000000 0.000000
16.500000 4.500000 0.000000
18.000000 -4.500000 0.000000
18.000000 -3.000000 0.000000
18.000000 -1.500000 0.000000
18.000000 0.000000 0.000000
18.000000 1.500000 0.000000
18.000000 3.000000 0.000000
18.000000 4.500000 0.000000
19.500000 -4.500000 0.000000
19.500000 -3.000000 0.000000
19.500000 -1.500000 0.000000
19.500000 0.000000 0.000000
19.500000 1.500000 0.000000
19.500000 3.000000 0.000000
19.500000 4.500000 0.000000
21.000000 -4.500000 0.000000
21.000000 -3.000000 0.000000
21.000000 -1.500000 0.000000
21.000000 0.000000 0.000000
21.000000 1.500000 0.000000
21.000000 3.000000 0.000000
21.000000 4.500000 0.000000
22.500000 -4.500000 0.000000
22.500000 -3.000000 0.000000
22.500000 -1.500000 0.000000
22.500000 0.000000 0.000000
22.500000 1.500000 0.000000
22.500000 3.000000 0.000000
22.500000 4.500000 0.000000
24.000000 -4.500000 0.000000
24.000000 -3.000000 0.000000
24.000000 -1.500000 0.000000
24.000000 -0.000000 0.000000
24.000000 1.500000 0.000000
24.000000 3.000000 0.000000
24.000000 4.500000 0.000000
25.500000 -4.500000 0.000000
25.500000 -3.000000 0.000000
25.500000 -1.500000 0.000000
25.500000 -0.000000 0.000000
25.500000 1.500000 0.000000
25.500000 3.000000 0.000000
25.500000 4.500000 0.000000
27.000000 -4.500000 0.000000
27.000000 -3.000000 0.000000
27.000000 -1.500000 0.000000
27.000000 -0.000000 0.000000
27.000000 1.500000 0.000000
27.000000 3.000000 0.000000
27.000000 4.500000 0.000000
28.500000 -4.500000 0.000000
28.500000 -3.000000 0.000000
28.500000 -1.500000 0.000000
28.500000 -0.000000 0.000000
28.500000 1.500000 0.000000
28.500000 3.000000 0.000000
28.500000 4.500000 0.000000
30.000000 -4.500000 0.000000
30.000000 -3.000000 0.000000
30.000000 -1.500000 0.000000
30.000000 -0.000000 0.000000
30.000000 1.500000 0.000000
30.000000 3.000000 0.000000
30.000000 4.500000 0.000000
31.500000 -4.500000 0.000000
31.500000 -3.000000 0.000000
31.500000 -1.500000 0.000000
31.500000 -0.000000 0.000000
31.500000 1.500000 0.000000
31.500000 3.000000 0.000000
31.500000 4.500000 0.000000
33.000000 -4.500000 0.000000
33.000000 -3.000000 0.000000
33.000000 -1.500000 0.000000
33.000000 -0.000000 0.000000
33.000000 1.500000 0.000000
33.000000 3.000000 0.000000
33.000000 4.500000 0.000000
34.500000 -4.500000 0.000000
34.500000 -3.000000 0.000000
34.500000 -1.500000 0.000000
34.500000 -0.000000 0.000000
34.500000 1.500000 0.000000
34.500000 3.000000 0.000000
34.500000 4.500000 0.000000
36.000000 -4.500000 0.000000
36.000000 -3.000000 0.000000
36.000000 -1.500000 0.000000
36.000000 -0.000000 0.000000
36.000000 1.500000 0.000000
36.000000 3.000000 0.000000
36.000000 4.500000 0.000000
37.500000 -4.500000 0.000000
37.500000 -3.000000 0.000000
37.500000 -1.500000 0.000000
37.500000 -0.000000 0.000000
37.500000 1.500000 0.000000
37.500000 3.000000 0.000000
37.500000 4.500000 0.000000
39.000000 -4.500000 0.000000
39.000000 -3.000000 0.000000
39.000000 -1.500000 0.000000
39.000000 -0.000000 0.000000
39.000000 1.500000 0.000000
39.000000 3.000000 0.000000
39.000000 4.500000 0.000000
40.500000 -4.500000 0.000000
40.500000 -3.000000 0.000000
40.500000 -1.500000 0.000000
40.500000 -0.000000 0.000000
40.500000 1.500000 0.000000
40.500000 3.000000 0.000000
40.500000 4.500000 0.000000
42.000000 -4.500000 0.000000
42.000000 -3.000000 0.000000
42.000000 -1.500000 0.000000
42.000000 -0.000000 0.000000
42.000000 1.500000 0.000000
42.000000 3.000000 0.000000
42.000000 4.500000 0.000000
43.500000 -4.500000 0.000000
43.500000 -3.000000 0.000000
43.500000 -1.500000 0.000000
43.500000 -0.000000 0.000000
43.500000 1.500000 0.000000
43.500000 3.000000 0.000000
43.500000 4.500000 0.000000
45.000000 -4.500000 0.000000
45.000000 -3.000000 0.000000
45.000000 -1.500000 0.000000
45.000000 -0.000000 0.000000
45.000000 1.500000 0.000000
45.000000 3.000000 0.000000
45.000000 4.500000 0.000000
46.500000 -4.500000 0.000000
46.500000 -3.000000 0.000000
46.500000 -1.500000 0.000000
46.500000 -0.000000 0.000000
46.500000 1.500000 0.000000
46.500000 3.000000 0.000000
46.500000 4.500000 0.000000
POLYGONS 256 1280
4 0 4 80 79
4 79 80 81 78
4 78 81 82 77
4 77 82 83 76
4 76 83 84 75
4 75 84 85 74
4 74 85 86 73
4 73 86 72 3
4 4 5 87 80
4 80 87 88 81
4 81 88 89 82
4 82 89 90 83
4 83 90 91 84
4 84 91 92 85
4 85 92 93 86
4 86 93 71 72
4 5 6 94 87
4 87 94 95 88
4 88 95 96 89
4 89 96 97 90
4 90 97 98 91
4 91 98 99 92
4 92 99 100 93
4 93 100 70 71
4 6 7 101 94
4 94 101 102 95
4 95 102 103 96
4 96 103 104 97
4 97 104 105 98
4 98 105 106 99
4 99 106 107 100
4 100 107 69 70
4 7 8 108 101
4 101 108 109 102
4 102 109 110 103
4 103 110 111 104
4 104 111 112 105
4 105 112 113 106
4 106 113 114 107
4 107 114 68 69
4 8 9 115 108
4 108 115 116 109
4 109 116 117 110
4 110 117 118 111
4 111 118 119 112
4 112 119 120 113
4 113 120 121 114
4 114 121 67 68
4 9 10 122 115
4 115 122 123 116
4 116 123 124 117
4 117 124 125 118
4 118 125 126 119
4 119 126 127 120
4 120 127 128 121
4 121 128 66 67
4 10 11 129 122
4 122 129 130 123
4 123 130 131 124
4 124 131 132 125
4 125 132 133 126
4 126 133 134 127
4 127 134 135 128
4 128 135 65 66
4 11 12 136 129
4 129 136 137 130
4 130 137 138 131
4 131 138 139 132
4 132 139 140 133
4 133 140 141 134
4 134 141 142 135
4 135 142 64 65
4 12 13 143 136
4 136 143 144 137
4 137 144 145 138
4 138 145 146 139
4 139 146 147 140
4 140 147 148 141
4 141 148 149 142
4 142 149 63 64
4 13 14 150 143
4 143 150 151 144
4 144 151 152 145
4 145 152 153 146
4 146 153 154 147
4 147 154 155 148
4 148 155 156 149
4 149 156 62 63
4 14 15 157 150
4 150 157 158 151
4 151 158 159 152
4 152 159 160 153
4 153 160 161 154
4 154 161 162 155
4 155 162 163 156
4 156 163 61 62
4 15 16 164 157
4 157 164 165 158
4 158 165 166 159
4 159 166 167 160
4 160 167 168 161
4 161 168 169 162
4 162 169 170 163
4 163 170 60 61
4 16 17 171 164
4 164 171 172 165
4 165 172 173 166
4 166 173 174 167
4 167 174 175 168
4 168 175 176 169
4 169 176 177 170
4 170 177 59 60
4 17 18 178 171
4 171 178 179 172
4 172 179 180 173
4 173 180 181 174
4 174 181 182 175
4 175 182 183 176
4 176 183 184 177
4 177 184 58 59
4 18 19 185 178
4 178 185 186 179
4 179 186 187 180
4 180 187 188 181
4 181 188 189 182
4 182 189 190 183
4 183 190 191 184
4 184 191 57 58
4 19 20 192 185
4 185 192 193 186
4 186 193 194 187
4 187 194 195 188
4 188 195 196 189
4 189 196 197 190
4 190 197 198 191
4 191 198 56 57
4 20 21 199 192
4 192 199 200 193
4 193 200 201 194
4 194 201 202 195
4 195 202 203 196
4 196 203 204 197
4 197 204 205 198
4 198 205 55 56
4 21 22 206 199
4 199 206 207 200
4 200 207 208 201
4 201 208 209 202
4 202 209 210 203
4 203 210 211 204
4 204 211 212 205
4 205 212 54 55
4 22 23 213 206
4 206 213 214 207
4 207 214 215 208
4 208 215 216 209
4 209 216 217 210
4 210 217 218 211
4 211 218 219 212
4 212 219 53 54
4 23 24 220 213
4 213 220 221 214
4 214 221 222 215
4 215 222 223 216
4 216 223 224 217
4 217 224 225 218
4 218 225 226 219
4 219 226 52 53
4 24 25 227 220
4 220 227 228 221
4 221 228 229 222
4 222 229 230 223
4 223 230 231 224
4 224 231 232 225
4 225 232 233 226
4 226 233 51 52
4 25 26 234 227
4 227 234 235 228
4 228 235 236 229
4 229 236 237 230
4 230 237 238 231
4 231 238 239 232
4 232 239 240 233
4 233 240 50 51
4 26 27 241 234
4 234 241 242 235
4 235 242 243 236
4 236 243 244 237
4 237 244 245 238
4 238 245 246 239
4 239 246 247 240
4 240 247 49 50
4 27 28 248 241
4 241 248 249 242
4 242 249 250 243
4 243 250 251 244
4 244 251 252 245
4 245 252 253 246
4 246 253 254 247
4 247 254 48 49
4 28 29 255 248
4 248 255 256 249
4 249 256 257 250
4 250 257 258 251
4 251 258 259 252
4 252 259 260 253
4 253 260 261 254
4 254 261 47 48
4 29 30 262 255
4 255 262 263 256
4 256 263 264 257
4 257 264 265 258
4 258 265 266 259
4 259 266 267 260
4 260 267 268 261
4 261 268 46 47
4 30 31 269 262
4 262 269 270 263
4 263 270 271 264
4 264 271 272 265
4 265 272 273 266
4 266 273 274 267
4 267 274 275 268
4 268 275 45 46
4 31 32 276 269
4 269 276 277 270
4 270 277 278 271
4 271 278 279 272
4 272 279 280 273
4 273 280 281 274
4 274 281 282 275
4 275 282 44 45
4 32 33 283 276
4 276 283 284 277
4 277 284 285 278
4 278 285 286 279
4 279 286 287 280
4 280 287 288 281
4 281 288 289 282
4 282 289 43 44
4 33 34 290 283
4 283 290 291 284
4 284 291 292 285
4 285 292 293 286
4 286 293 294 287
4 287 294 295 288
4 288 295 296 289
4 289 296 42 43
4 34 1 35 290
4 290 35 36 291
4 291 36 37 292
4 292 37 38 293
4 293 38 39 294
4 294 39 40 295
4 295 40 41 296
4 296 41 2 42
CELL_DATA 256
SCALARS PRESSURE float 1
LOOKUP_TABLE default
-77003857060.316895
-93753323551.496445
-75871243395.093353
-78696625974.976608
-85291573679.132187
-81703747810.007629
-84757994081.616760
-75654660607.595337
74283710856.830811
52223197568.117294
57642699726.418983
22244548406.329384
72890665777.655106
53605934794.506264
43416843944.005829
64809018395.697006
-23682546303.361794
-34608283757.675423
-15960075766.451595
-16815597293.904819
-16134571510.055044
-43545270625.487411
-20478327648.962833
-19992712029.108543
20676645913.186195
505622615.115891
10371684457.415344
9094935676.706202
-525026348.252099
22714555198.161594
10675924287.284065
25128796156.065559
11524021946.555521
-5490467134.668694
243519288.930713
-1616460092.851941
-6598268137.800744
5539324845.439114
-27448655261.153435
3767555676.826866
3834506037.404136
-2559027343.653506
-3112359109.280703
-1059237834.832939
2454317467.740222
2577317840.320163
1367136971.191073
12032147709.178104
13413975423.553238
-6638610604.066511
4052499614.481896
-402011664.943243
481898994.041451
-2787774380.586187
-5407153458.217646
9902877642.256134
11734644764.054438
-8698593845.481346
6843144305.590779
-2777896284.529630
277084087.984935
5507935812.528052
-7285529727.332199
13149391343.095486
8950545113.344339
-8256227344.508552
2897971740.120440
-1554382599.505426
-2067687732.101766
3352553723.044514
-7631769794.566922
7116278148.739517
10906088596.711971
-6365461964.022589
2984238222.640201
831078057.445641
-1502980684.174461
4031270495.167722
-7147759233.297469
9948931771.322641
9578543776.990171
-6581762726.429264
2799930795.976128
-175237652.974320
-2392860376.907839
4319456452.347422
-7303649339.111010
14507060642.125519
11578358834.683310
-6567771029.670921
2513218458.052769
-95176007.105678
-2575129192.687153
6021961720.881368
-7898637138.282236
7182012781.579267
10509660335.049679
-6222881748.441140
2232806088.513273
713568113.834955
-3139842300.737780
4223029388.616282
-7157982892.984467
11630008267.017054
9056715952.712934
-7086241604.120209
2995507274.988898
835643420.431237
-826523984.607592
2655806754.170780
-9237467231.946238
9311080518.338501
10701684641.266863
-7681428889.104710
3506567428.083089
-2641105626.708196
-1088110345.639558
4708702944.605351
-3552382166.427413
12881248213.642746
12019637392.351347
-6780723948.205332
4734467460.984917
-1599896668.087470
-794888188.419290
2934540008.456937
-9104750443.532785
8499749764.045522
9671885566.540520
-7304314314.075750
3065190546.493639
534135755.391158
292497538.061645
572401556.705872
-4472859318.446715
10360680539.766151
9775493213.946913
-5905383672.042774
757815422.274647
1150469884.325079
-4522172857.797801
2336280750.364958
-2499283084.969193
9564393041.111517
9603778627.925638
-4988577266.647572
997081239.014278
2426589946.079736
-2509827985.854256
6876904238.858802
-11268126041.846703
9644672125.903675
10919028764.667599
-6069831902.014623
1617304737.766864
52960558.227347
-3543823736.618968
4791258445.331227
-5989320056.492769
11258822276.160301
10885519389.709145
-6257932657.222044
3119437556.940562
70697263.390541
216705964.116343
1271139281.180450
-6926224429.737342
10870658806.502466
8527589955.298138
-7556041895.754170
3722353017.685325
-2550990899.814094
83305131.694582
4019165858.319087
-7263199013.473022
10666122409.759766
11620972933.368599
-7166143883.138679
4504473484.511157
-1499631265.092631
-1256397334.423741
2961785180.430744
-6831840260.614449
9136186079.675894
11544322224.072411
-7902715547.813742
3943677151.141142
-1325700566.314249
19942664.979631
3019418269.160296
-6504185355.224599
11085634937.341478
9353491130.663986
-7350471344.927892
4550123356.957463
-2026475643.881857
-710650002.963211
2972993452.701885
-6746400089.648643
10957766135.614540
10487396007.967796
-7815396191.649421
3657383643.305346
-1199254535.010637
-209511965.885530
3429322093.347340
-7642967472.383568
10118918510.101889
11123690291.946285
-5576442290.665781
3262187278.317958
-2086376456.062736
-430802992.007233
3043655555.475936
-7377056192.783271
9861164616.854940
9704750905.856094
-7419932808.454582
4174833149.489368
-857180278.457748
-493176674.172430
3099058092.947489
-4741296262.902405
11028719754.309889
10386986997.594778
-7379771081.348983
2334575351.193934
357149127.606279
-1311645557.192432
1397864657.153911
-7910625083.432824
10539594922.022083
9877184269.167387
-3005846447.671223
207747870.956155
-1180152991.323618
-302576774.810545
5848685232.667689
-7388691526.784872
9694026276.336294
9866678339.758675
-6709835506.275728
2188953178.348492
1734018905.536911
-3016481041.244619
281915637.317490
-3758172829.521592
9898829017.517372
11041326801.931644
-7660633941.736648
3823163035.403976
-1218882697.602090
-280454222.539781
3159751002.916472
-6786141625.094078
10415364680.521503
