# vtk DataFile Version 2.0
cantilever_tri3_mix
ASCII
DATASET POLYDATA
POINTS 85 float
0.000000 -6.000000 0.000000
48.000000 -6.000000 0.000000
48.000000 6.000000 0.000000
0.000000 6.000000 0.000000
3.000000 -6.000000 0.000000
6.000000 -6.000000 0.000000
9.000000 -6.000000 0.000000
12.000000 -6.000000 0.000000
15.000000 -6.000000 0.000000
18.000000 -6.000000 0.000000
21.000000 -6.000000 0.000000
24.000000 -6.000000 0.000000
27.000000 -6.000000 0.000000
30.000000 -6.000000 0.000000
33.000000 -6.000000 0.000000
36.000000 -6.000000 0.000000
39.000000 -6.000000 0.000000
42.000000 -6.000000 0.000000
45.000000 -6.000000 0.000000
48.000000 -3.000000 0.000000
48.000000 -0.000000 0.000000
48.000000 3.000000 0.000000
45.000000 6.000000 0.000000
42.000000 6.000000 0.000000
39.000000 6.000000 0.000000
36.000000 6.000000 0.000000
33.000000 6.000000 0.000000
30.000000 6.000000 0.000000
27.000000 6.000000 0.000000
24.000000 6.000000 0.000000
21.000000 6.000000 0.000000
18.000000 6.000000 0.000000
15.000000 6.000000 0.000000
12.000000 6.000000 0.000000
9.000000 6.000000 0.000000
6.000000 6.000000 0.000000
3.000000 6.000000 0.000000
0.000000 3.000000 0.000000
0.000000 0.000000 0.000000
0.000000 -3.000000 0.000000
3.000000 -3.000000 0.000000
3.000000 0.000000 0.000000
3.000000 3.000000 0.000000
6.000000 -3.000000 0.000000
6.000000 0.000000 0.000000
6.000000 3.000000 0.000000
9.000000 -3.000000 0.000000
9.000000 0.000000 0.000000
9.000000 3.000000 0.000000
12.000000 -3.000000 0.000000
12.000000 0.000000 0.000000
12.000000 3.000000 0.000000
15.000000 -3.000000 0.000000
15.000000 0.000000 0.000000
15.000000 3.000000 0.000000
18.000000 -3.000000 0.000000
18.000000 0.000000 0.000000
18.000000 3.000000 0.000000
21.000000 -3.000000 0.000000
21.000000 0.000000 0.000000
21.000000 3.000000 0.000000
24.000000 -3.000000 0.000000
24.000000 -0.000000 0.000000
24.000000 3.000000 0.000000
27.000000 -3.000000 0.000000
27.000000 -0.000000 0.000000
27.000000 3.000000 0.000000
30.000000 -3.000000 0.000000
30.000000 -0.000000 0.000000
30.000000 3.000000 0.000000
33.000000 -3.000000 0.000000
33.000000 -0.000000 0.000000
33.000000 3.000000 0.000000
36.000000 -3.000000 0.000000
36.000000 -0.000000 0.000000
36.000000 3.000000 0.000000
39.000000 -3.000000 0.000000
39.000000 -0.000000 0.000000
39.000000 3.000000 0.000000
42.000000 -3.000000 0.000000
42.000000 -0.000000 0.000000
42.000000 3.000000 0.000000
45.000000 -3.000000 0.000000
45.000000 -0.000000 0.000000
45.000000 3.000000 0.000000
POLYGONS 128 512
3 0 4 39
3 39 4 40
3 39 40 38
3 38 40 41
3 38 41 37
3 37 41 42
3 37 42 3
3 3 42 36
3 4 5 40
3 40 5 43
3 40 43 41
3 41 43 44
3 41 44 42
3 42 44 45
3 42 45 36
3 36 45 35
3 5 6 43
3 43 6 46
3 43 46 44
3 44 46 47
3 44 47 45
3 45 47 48
3 45 48 35
3 35 48 34
3 6 7 46
3 46 7 49
3 46 49 47
3 47 49 50
3 47 50 48
3 48 50 51
3 48 51 34
3 34 51 33
3 7 8 49
3 49 8 52
3 49 52 50
3 50 52 53
3 50 53 51
3 51 53 54
3 51 54 33
3 33 54 32
3 8 9 52
3 52 9 55
3 52 55 53
3 53 55 56
3 53 56 54
3 54 56 57
3 54 57 32
3 32 57 31
3 9 10 55
3 55 10 58
3 55 58 56
3 56 58 59
3 56 59 57
3 57 59 60
3 57 60 31
3 31 60 30
3 10 11 58
3 58 11 61
3 58 61 59
3 59 61 62
3 59 62 60
3 60 62 63
3 60 63 30
3 30 63 29
3 11 12 61
3 61 12 64
3 61 64 62
3 62 64 65
3 62 65 63
3 63 65 66
3 63 66 29
3 29 66 28
3 12 13 64
3 64 13 67
3 64 67 65
3 65 67 68
3 65 68 66
3 66 68 69
3 66 69 28
3 28 69 27
3 13 14 67
3 67 14 70
3 67 70 68
3 68 70 71
3 68 71 69
3 69 71 72
3 69 72 27
3 27 72 26
3 14 15 70
3 70 15 73
3 70 73 71
3 71 73 74
3 71 74 72
3 72 74 75
3 72 75 26
3 26 75 25
3 15 16 73
3 73 16 76
3 73 76 74
3 74 76 77
3 74 77 75
3 75 77 78
3 75 78 25
3 25 78 24
3 16 17 76
3 76 17 79
3 76 79 77
3 77 79 80
3 77 80 78
3 78 80 81
3 78 81 24
3 24 81 23
3 17 18 79
3 79 18 82
3 79 82 80
3 80 82 83
3 80 83 81
3 81 83 84
3 81 84 23
3 23 84 22
3 18 1 82
3 82 1 19
3 82 19 83
3 83 19 20
3 83 20 84
3 84 20 21
3 84 21 22
3 22 21 2
POINT_DATA 85
VECTORS U float
0.000000 0.000000 0.000000
0.012727 0.071239 0.000000
-0.012805 0.071260 0.000000
-0.000000 0.000000 0.000000
0.001350 0.000952 0.000000
0.002866 0.002264 0.000000
0.004208 0.004251 0.000000
0.005486 0.006895 0.000000
0.006634 0.010135 0.000000
0.007696 0.013929 0.000000
0.008651 0.018227 0.000000
0.009508 0.022977 0.000000
0.010262 0.028129 0.000000
0.010917 0.033634 0.000000
0.011470 0.039440 0.000000
0.011925 0.045499 0.000000
0.012277 0.051759 0.000000
0.012528 0.058169 0.000000
0.012680 0.064680 0.000000
0.006282 0.071247 0.000000
-0.000040 0.071256 0.000000
-0.006363 0.071254 0.000000
-0.012764 0.064701 0.000000
-0.012610 0.058190 0.000000
-0.012360 0.051778 0.000000
-0.012007 0.045519 0.000000
-0.011553 0.039461 0.000000
-0.011003 0.033656 0.000000
-0.010348 0.028147 0.000000
-0.009591 0.023001 0.000000
-0.008740 0.018246 0.000000
-0.007779 0.013951 0.000000
-0.006726 0.010160 0.000000
-0.005569 0.006921 0.000000
-0.004322 0.004287 0.000000
-0.002974 0.002301 0.000000
-0.001570 0.000983 0.000000
-0.000000 -0.000000 0.000000
0.000000 0.000000 0.000000
0.000000 -0.000000 0.000000
0.000608 0.000483 0.000000
-0.000034 0.000380 0.000000
-0.000690 0.000496 0.000000
0.001358 0.001793 0.000000
-0.000024 0.001671 0.000000
-0.001416 0.001826 0.000000
0.002022 0.003819 0.000000
-0.000039 0.003697 0.000000
-0.002113 0.003839 0.000000
0.002656 0.006490 0.000000
-0.000043 0.006381 0.000000
-0.002742 0.006505 0.000000
0.003236 0.009768 0.000000
-0.000044 0.009665 0.000000
-0.003323 0.009777 0.000000
0.003765 0.013596 0.000000
-0.000043 0.013502 0.000000
-0.003849 0.013603 0.000000
0.004243 0.017927 0.000000
-0.000044 0.017844 0.000000
-0.004330 0.017933 0.000000
0.004671 0.022711 0.000000
-0.000043 0.022637 0.000000
-0.004760 0.022716 0.000000
0.005049 0.027898 0.000000
-0.000043 0.027832 0.000000
-0.005132 0.027906 0.000000
0.005376 0.033436 0.000000
-0.000042 0.033381 0.000000
-0.005462 0.033443 0.000000
0.005654 0.039277 0.000000
-0.000042 0.039233 0.000000
-0.005736 0.039283 0.000000
0.005881 0.045369 0.000000
-0.000041 0.045334 0.000000
-0.005964 0.045375 0.000000
0.006057 0.051663 0.000000
-0.000041 0.051638 0.000000
-0.006140 0.051669 0.000000
0.006183 0.058108 0.000000
-0.000041 0.058092 0.000000
-0.006265 0.058114 0.000000
0.006261 0.064654 0.000000
-0.000039 0.064647 0.000000
-0.006341 0.064660 0.000000
