# vtk DataFile Version 2.0
cantilever_Q4P1_mix
ASCII
DATASET POLYDATA
POINTS 297 float
0.000000 -6.000000 0.000000
48.000000 -6.000000 0.000000
48.000000 6.000000 0.000000
0.000000 6.000000 0.000000
1.500000 -6.000000 0.000000
3.000000 -6.000000 0.000000
4.500000 -6.000000 0.000000
6.000000 -6.000000 0.000000
7.500000 -6.000000 0.000000
9.000000 -6.000000 0.000000
10.500000 -6.000000 0.000000
12.000000 -6.000000 0.000000
13.500000 -6.000000 0.000000
15.000000 -6.000000 0.000000
16.500000 -6.000000 0.000000
18.000000 -6.000000 0.000000
19.500000 -6.000000 0.000000
21.000000 -6.000000 0.000000
22.500000 -6.000000 0.000000
24.000000 -6.000000 0.000000
25.500000 -6.000000 0.000000
27.000000 -6.000000 0.000000
28.500000 -6.000000 0.000000
30.000000 -6.000000 0.000000
31.500000 -6.000000 0.000000
33.000000 -6.000000 0.000000
34.500000 -6.000000 0.000000
36.000000 -6.000000 0.000000
37.500000 -6.000000 0.000000
39.000000 -6.000000 0.000000
40.500000 -6.000000 0.000000
42.000000 -6.000000 0.000000
43.500000 -6.000000 0.000000
45.000000 -6.000000 0.000000
46.500000 -6.000000 0.000000
48.000000 -4.500000 0.000000
48.000000 -3.000000 0.000000
48.000000 -1.500000 0.000000
48.000000 -0.000000 0.000000
48.000000 1.500000 0.000000
48.000000 3.000000 0.000000
48.000000 4.500000 0.000000
46.500000 6.000000 0.000000
45.000000 6.000000 0.000000
43.500000 6.000000 0.000000
42.000000 6.000000 0.000000
40.500000 6.000000 0.000000
39.000000 6.000000 0.000000
37.500000 6.000000 0.000000
36.000000 6.000000 0.000000
34.500000 6.000000 0.000000
33.000000 6.000000 0.000000
31.500000 6.000000 0.000000
30.000000 6.000000 0.000000
28.500000 6.000000 0.000000
27.000000 6.000000 0.000000
25.500000 6.000000 0.000000
24.000000 6.000000 0.000000
22.500000 6.000000 0.000000
21.000000 6.000000 0.000000
19.500000 6.000000 0.000000
18.000000 6.000000 0.000000
16.500000 6.000000 0.000000
15.000000 6.000000 0.000000
13.500000 6.000000 0.000000
12.000000 6.000000 0.000000
10.500000 6.000000 0.000000
9.000000 6.000000 0.000000
7.500000 6.000000 0.000000
6.000000 6.000000 0.000000
4.500000 6.000000 0.000000
3.000000 6.000000 0.000000
1.500000 6.000000 0.000000
0.000000 4.500000 0.000000
0.000000 3.000000 0.000000
0.000000 1.500000 0.000000
0.000000 0.000000 0.000000
0.000000 -1.500000 0.000000
0.000000 -3.000000 0.000000
0.000000 -4.500000 0.000000
1.500000 -4.500000 0.000000
1.500000 -3.000000 0.000000
1.500000 -1.500000 0.000000
1.500000 0.000000 0.000000
1.500000 1.500000 0.000000
1.500000 3.000000 0.000000
1.500000 4.500000 0.000000
3.000000 -4.500000 0.000000
3.000000 -3.000000 0.000000
3.000000 -1.500000 0.000000
3.000000 0.000000 0.000000
3.000000 1.500000 0.000000
3.000000 3.000000 0.000000
3.000000 4.500000 0.000000
4.500000 -4.500000 0.000000
4.500000 -3.000000 0.000000
4.500000 -1.500000 0.000000
4.500000 0.000000 0.000000
4.500000 1.500000 0.000000
4.500000 3.000000 0.000000
4.500000 4.500000 0.000000
6.000000 -4.500000 0.000000
6.000000 -3.000000 0.000000
6.000000 -1.500000 0.000000
6.000000 0.000000 0.000000
6.000000 1.500000 0.000000
6.000000 3.000000 0.000000
6.000000 4.500000 0.000000
7.500000 -4.500000 0.000000
7.500000 -3.000000 0.000000
7.500000 -1.500000 0.000000
7.500000 0.000000 0.000000
7.500000 1.500000 0.000000
7.500000 3.000000 0.000000
7.500000 4.500000 0.000000
9.000000 -4.500000 0.000000
9.000000 -3.000000 0.000000
9.000000 -1.500000 0.000000
9.000000 0.000000 0.000000
9.000000 1.500000 0.000000
9.000000 3.000000 0.000000
9.000000 4.500000 0.000000
10.500000 -4.500000 0.000000
10.500000 -3.000000 0.000000
10.500000 -1.500000 0.000000
10.500000 0.000000 0.000000
10.500000 1.500000 0.000000
10.500000 3.000000 0.000000
10.500000 4.500000 0.000000
12.000000 -4.500000 0.000000
12.000000 -3.000000 0.000000
12.000000 -1.500000 0.000000
12.000000 0.000000 0.000000
12.000000 1.500000 0.000000
12.000000 3.000000 0.000000
12.000000 4.500000 0.000000
13.500000 -4.500000 0.000000
13.500000 -3.000000 0.000000
13.500000 -1.500000 0.000000
13.500000 0.000000 0.000000
13.500000 1.500000 0.000000
13.500000 3.000000 0.000000
13.500000 4.500000 0.000000
15.000000 -4.500000 0.000000
15.000000 -3.000000 0.000000
15.000000 -1.500000 0.000000
15.000000 0.000000 0.000000
15.000000 1.500000 0.000000
15.000000 3.000000 0.000000
15.000000 4.500000 0.000000
16.500000 -4.500000 0.000000
16.500000 -3.000000 0.000000
16.500000 -1.500000 0.000000
16.500000 0.000000 0.000000
16.500000 1.500000 0.000000
16.500000 3.000000 0.000000
16.500000 4.500000 0.000000
18.000000 -4.500000 0.000000
18.000000 -3.000000 0.000000
18.000000 -1.500000 0.000000
18.000000 0.000000 0.000000
18.000000 1.500000 0.000000
18.000000 3.000000 0.000000
18.000000 4.500000 0.000000
19.500000 -4.500000 0.000000
19.500000 -3.000000 0.000000
19.500000 -1.500000 0.000000
19.500000 0.000000 0.000000
19.500000 1.500000 0.000000
19.500000 3.000000 0.000000
19.500000 4.500000 0.000000
21.000000 -4.500000 0.000000
21.000000 -3.000000 0.000000
21.000000 -1.500000 0.000000
21.000000 0.000000 0.000000
21.000000 1.500000 0.000000
21.000000 3.000000 0.000000
21.000000 4.500000 0.000000
22.500000 -4.500000 0.000000
22.500000 -3.000000 0.000000
22.500000 -1.500000 0.000000
22.500000 0.000000 0.000000
22.500000 1.500000 0.000000
22.500000 3.000000 0.000000
22.500000 4.500000 0.000000
24.000000 -4.500000 0.000000
24.000000 -3.000000 0.000000
24.000000 -1.500000 0.000000
24.000000 -0.000000 0.000000
24.000000 1.500000 0.000000
24.000000 3.000000 0.000000
24.000000 4.500000 0.000000
25.500000 -4.500000 0.000000
25.500000 -3.000000 0.000000
25.500000 -1.500000 0.000000
25.500000 -0.000000 0.000000
25.500000 1.500000 0.000000
25.500000 3.000000 0.000000
25.500000 4.500000 0.000000
27.000000 -4.500000 0.000000
27.000000 -3.000000 0.000000
27.000000 -1.500000 0.000000
27.000000 -0.000000 0.000000
27.000000 1.500000 0.000000
27.000000 3.000000 0.000000
27.000000 4.500000 0.000000
28.500000 -4.500000 0.000000
28.500000 -3.000000 0.000000
28.500000 -1.500000 0.000000
28.500000 -0.000000 0.000000
28.500000 1.500000 0.000000
28.500000 3.000000 0.000000
28.500000 4.500000 0.000000
30.000000 -4.500000 0.000000
30.000000 -3.000000 0.000000
30.000000 -1.500000 0.000000
30.000000 -0.000000 0.000000
30.000000 1.500000 0.000000
30.000000 3.000000 0.000000
30.000000 4.500000 0.000000
31.500000 -4.500000 0.000000
31.500000 -3.000000 0.000000
31.500000 -1.500000 0.000000
31.500000 -0.000000 0.000000
31.500000 1.500000 0.000000
31.500000 3.000000 0.000000
31.500000 4.500000 0.000000
33.000000 -4.500000 0.000000
33.000000 -3.000000 0.000000
33.000000 -1.500000 0.000000
33.000000 -0.000000 0.000000
33.000000 1.500000 0.000000
33.000000 3.000000 0.000000
33.000000 4.500000 0.000000
34.500000 -4.500000 0.000000
34.500000 -3.000000 0.000000
34.500000 -1.500000 0.000000
34.500000 -0.000000 0.000000
34.500000 1.500000 0.000000
34.500000 3.000000 0.000000
34.500000 4.500000 0.000000
36.000000 -4.500000 0.000000
36.000000 -3.000000 0.000000
36.000000 -1.500000 0.000000
36.000000 -0.000000 0.000000
36.000000 1.500000 0.000000
36.000000 3.000000 0.000000
36.000000 4.500000 0.000000
37.500000 -4.500000 0.000000
37.500000 -3.000000 0.000000
37.500000 -1.500000 0.000000
37.500000 -0.000000 0.000000
37.500000 1.500000 0.000000
37.500000 3.000000 0.000000
37.500000 4.500000 0.000000
39.000000 -4.500000 0.000000
39.000000 -3.000000 0.000000
39.000000 -1.500000 0.000000
39.000000 -0.000000 0.000000
39.000000 1.500000 0.000000
39.000000 3.000000 0.000000
39.000000 4.500000 0.000000
40.500000 -4.500000 0.000000
40.500000 -3.000000 0.000000
40.500000 -1.500000 0.000000
40.500000 -0.000000 0.000000
40.500000 1.500000 0.000000
40.500000 3.000000 0.000000
40.500000 4.500000 0.000000
42.000000 -4.500000 0.000000
42.000000 -3.000000 0.000000
42.000000 -1.500000 0.000000
42.000000 -0.000000 0.000000
42.000000 1.500000 0.000000
42.000000 3.000000 0.000000
42.000000 4.500000 0.000000
43.500000 -4.500000 0.000000
43.500000 -3.000000 0.000000
43.500000 -1.500000 0.000000
43.500000 -0.000000 0.000000
43.500000 1.500000 0.000000
43.500000 3.000000 0.000000
43.500000 4.500000 0.000000
45.000000 -4.500000 0.000000
45.000000 -3.000000 0.000000
45.000000 -1.500000 0.000000
45.000000 -0.000000 0.000000
45.000000 1.500000 0.000000
45.000000 3.000000 0.000000
45.000000 4.500000 0.000000
46.500000 -4.500000 0.000000
46.500000 -3.000000 0.000000
46.500000 -1.500000 0.000000
46.500000 -0.000000 0.000000
46.500000 1.500000 0.000000
46.500000 3.000000 0.000000
46.500000 4.500000 0.000000
POLYGONS 256 1280
4 0 4 80 79
4 79 80 81 78
4 78 81 82 77
4 77 82 83 76
4 76 83 84 75
4 75 84 85 74
4 74 85 86 73
4 73 86 72 3
4 4 5 87 80
4 80 87 88 81
4 81 88 89 82
4 82 89 90 83
4 83 90 91 84
4 84 91 92 85
4 85 92 93 86
4 86 93 71 72
4 5 6 94 87
4 87 94 95 88
4 88 95 96 89
4 89 96 97 90
4 90 97 98 91
4 91 98 99 92
4 92 99 100 93
4 93 100 70 71
4 6 7 101 94
4 94 101 102 95
4 95 102 103 96
4 96 103 104 97
4 97 104 105 98
4 98 105 106 99
4 99 106 107 100
4 100 107 69 70
4 7 8 108 101
4 101 108 109 102
4 102 109 110 103
4 103 110 111 104
4 104 111 112 105
4 105 112 113 106
4 106 113 114 107
4 107 114 68 69
4 8 9 115 108
4 108 115 116 109
4 109 116 117 110
4 110 117 118 111
4 111 118 119 112
4 112 119 120 113
4 113 120 121 114
4 114 121 67 68
4 9 10 122 115
4 115 122 123 116
4 116 123 124 117
4 117 124 125 118
4 118 125 126 119
4 119 126 127 120
4 120 127 128 121
4 121 128 66 67
4 10 11 129 122
4 122 129 130 123
4 123 130 131 124
4 124 131 132 125
4 125 132 133 126
4 126 133 134 127
4 127 134 135 128
4 128 135 65 66
4 11 12 136 129
4 129 136 137 130
4 130 137 138 131
4 131 138 139 132
4 132 139 140 133
4 133 140 141 134
4 134 141 142 135
4 135 142 64 65
4 12 13 143 136
4 136 143 144 137
4 137 144 145 138
4 138 145 146 139
4 139 146 147 140
4 140 147 148 141
4 141 148 149 142
4 142 149 63 64
4 13 14 150 143
4 143 150 151 144
4 144 151 152 145
4 145 152 153 146
4 146 153 154 147
4 147 154 155 148
4 148 155 156 149
4 149 156 62 63
4 14 15 157 150
4 150 157 158 151
4 151 158 159 152
4 152 159 160 153
4 153 160 161 154
4 154 161 162 155
4 155 162 163 156
4 156 163 61 62
4 15 16 164 157
4 157 164 165 158
4 158 165 166 159
4 159 166 167 160
4 160 167 168 161
4 161 168 169 162
4 162 169 170 163
4 163 170 60 61
4 16 17 171 164
4 164 171 172 165
4 165 172 173 166
4 166 173 174 167
4 167 174 175 168
4 168 175 176 169
4 169 176 177 170
4 170 177 59 60
4 17 18 178 171
4 171 178 179 172
4 172 179 180 173
4 173 180 181 174
4 174 181 182 175
4 175 182 183 176
4 176 183 184 177
4 177 184 58 59
4 18 19 185 178
4 178 185 186 179
4 179 186 187 180
4 180 187 188 181
4 181 188 189 182
4 182 189 190 183
4 183 190 191 184
4 184 191 57 58
4 19 20 192 185
4 185 192 193 186
4 186 193 194 187
4 187 194 195 188
4 188 195 196 189
4 189 196 197 190
4 190 197 198 191
4 191 198 56 57
4 20 21 199 192
4 192 199 200 193
4 193 200 201 194
4 194 201 202 195
4 195 202 203 196
4 196 203 204 197
4 197 204 205 198
4 198 205 55 56
4 21 22 206 199
4 199 206 207 200
4 200 207 208 201
4 201 208 209 202
4 202 209 210 203
4 203 210 211 204
4 204 211 212 205
4 205 212 54 55
4 22 23 213 206
4 206 213 214 207
4 207 214 215 208
4 208 215 216 209
4 209 216 217 210
4 210 217 218 211
4 211 218 219 212
4 212 219 53 54
4 23 24 220 213
4 213 220 221 214
4 214 221 222 215
4 215 222 223 216
4 216 223 224 217
4 217 224 225 218
4 218 225 226 219
4 219 226 52 53
4 24 25 227 220
4 220 227 228 221
4 221 228 229 222
4 222 229 230 223
4 223 230 231 224
4 224 231 232 225
4 225 232 233 226
4 226 233 51 52
4 25 26 234 227
4 227 234 235 228
4 228 235 236 229
4 229 236 237 230
4 230 237 238 231
4 231 238 239 232
4 232 239 240 233
4 233 240 50 51
4 26 27 241 234
4 234 241 242 235
4 235 242 243 236
4 236 243 244 237
4 237 244 245 238
4 238 245 246 239
4 239 246 247 240
4 240 247 49 50
4 27 28 248 241
4 241 248 249 242
4 242 249 250 243
4 243 250 251 244
4 244 251 252 245
4 245 252 253 246
4 246 253 254 247
4 247 254 48 49
4 28 29 255 248
4 248 255 256 249
4 249 256 257 250
4 250 257 258 251
4 251 258 259 252
4 252 259 260 253
4 253 260 261 254
4 254 261 47 48
4 29 30 262 255
4 255 262 263 256
4 256 263 264 257
4 257 264 265 258
4 258 265 266 259
4 259 266 267 260
4 260 267 268 261
4 261 268 46 47
4 30 31 269 262
4 262 269 270 263
4 263 270 271 264
4 264 271 272 265
4 265 272 273 266
4 266 273 274 267
4 267 274 275 268
4 268 275 45 46
4 31 32 276 269
4 269 276 277 270
4 270 277 278 271
4 271 278 279 272
4 272 279 280 273
4 273 280 281 274
4 274 281 282 275
4 275 282 44 45
4 32 33 283 276
4 276 283 284 277
4 277 284 285 278
4 278 285 286 279
4 279 286 287 280
4 280 287 288 281
4 281 288 289 282
4 282 289 43 44
4 33 34 290 283
4 283 290 291 284
4 284 291 292 285
4 285 292 293 286
4 286 293 294 287
4 287 294 295 288
4 288 295 296 289
4 289 296 42 43
4 34 1 35 290
4 290 35 36 291
4 291 36 37 292
4 292 37 38 293
4 293 38 39 294
4 294 39 40 295
4 295 40 41 296
4 296 41 2 42
POINT_DATA 297
VECTORS U float
-0.000009 0.001477 0.000000
0.012144 0.069231 0.000000
-0.012144 0.069231 0.000000
0.000009 0.001477 0.000000
0.000737 0.001675 0.000000
0.001460 0.002044 0.000000
0.002159 0.002592 0.000000
0.002836 0.003311 0.000000
0.003488 0.004196 0.000000
0.004117 0.005242 0.000000
0.004723 0.006442 0.000000
0.005304 0.007790 0.000000
0.005862 0.009281 0.000000
0.006396 0.010908 0.000000
0.006907 0.012665 0.000000
0.007393 0.014548 0.000000
0.007856 0.016549 0.000000
0.008295 0.018662 0.000000
0.008711 0.020883 0.000000
0.009102 0.023204 0.000000
0.009470 0.025620 0.000000
0.009814 0.028126 0.000000
0.010135 0.030714 0.000000
0.010431 0.033380 0.000000
0.010704 0.036117 0.000000
0.010954 0.038919 0.000000
0.011179 0.041780 0.000000
0.011381 0.044695 0.000000
0.011559 0.047657 0.000000
0.011713 0.050661 0.000000
0.011844 0.053701 0.000000
0.011951 0.056770 0.000000
0.012034 0.059862 0.000000
0.012094 0.062973 0.000000
0.012130 0.066096 0.000000
0.009043 0.069226 0.000000
0.005999 0.069224 0.000000
0.002991 0.069223 0.000000
0.000000 0.069223 0.000000
-0.002991 0.069223 0.000000
-0.005999 0.069224 0.000000
-0.009043 0.069226 0.000000
-0.012130 0.066096 0.000000
-0.012094 0.062973 0.000000
-0.012034 0.059862 0.000000
-0.011951 0.056770 0.000000
-0.011844 0.053701 0.000000
-0.011713 0.050661 0.000000
-0.011559 0.047657 0.000000
-0.011381 0.044695 0.000000
-0.011179 0.041780 0.000000
-0.010954 0.038919 0.000000
-0.010704 0.036117 0.000000
-0.010431 0.033380 0.000000
-0.010135 0.030714 0.000000
-0.009814 0.028126 0.000000
-0.009470 0.025620 0.000000
-0.009102 0.023204 0.000000
-0.008711 0.020883 0.000000
-0.008295 0.018662 0.000000
-0.007856 0.016549 0.000000
-0.007393 0.014548 0.000000
-0.006907 0.012665 0.000000
-0.006396 0.010908 0.000000
-0.005862 0.009281 0.000000
-0.005304 0.007790 0.000000
-0.004723 0.006442 0.000000
-0.004117 0.005242 0.000000
-0.003488 0.004196 0.000000
-0.002836 0.003311 0.000000
-0.002159 0.002592 0.000000
-0.001460 0.002044 0.000000
-0.000737 0.001675 0.000000
0.000068 0.000820 0.000000
0.000075 0.000352 0.000000
0.000046 0.000070 0.000000
0.000000 -0.000023 0.000000
-0.000046 0.000070 0.000000
-0.000075 0.000352 0.000000
-0.000068 0.000820 0.000000
0.000488 0.001030 0.000000
0.000296 0.000571 0.000000
0.000139 0.000297 0.000000
-0.000000 0.000205 0.000000
-0.000139 0.000297 0.000000
-0.000296 0.000571 0.000000
-0.000488 0.001030 0.000000
0.001032 0.001422 0.000000
0.000657 0.000976 0.000000
0.000320 0.000709 0.000000
0.000000 0.000620 0.000000
-0.000320 0.000709 0.000000
-0.000657 0.000976 0.000000
-0.001032 0.001422 0.000000
0.001557 0.001990 0.000000
0.001008 0.001559 0.000000
0.000495 0.001301 0.000000
0.000000 0.001214 0.000000
-0.000495 0.001301 0.000000
-0.001008 0.001559 0.000000
-0.001557 0.001990 0.000000
0.002064 0.002730 0.000000
0.001346 0.002314 0.000000
0.000664 0.002065 0.000000
0.000000 0.001981 0.000000
-0.000664 0.002065 0.000000
-0.001346 0.002314 0.000000
-0.002064 0.002730 0.000000
0.002554 0.003636 0.000000
0.001673 0.003235 0.000000
0.000828 0.002995 0.000000
0.000000 0.002914 0.000000
-0.000828 0.002995 0.000000
-0.001673 0.003235 0.000000
-0.002554 0.003636 0.000000
0.003026 0.004702 0.000000
0.001987 0.004316 0.000000
0.000985 0.004085 0.000000
0.000000 0.004007 0.000000
-0.000985 0.004085 0.000000
-0.001987 0.004316 0.000000
-0.003026 0.004702 0.000000
0.003480 0.005922 0.000000
0.002290 0.005552 0.000000
0.001136 0.005329 0.000000
0.000000 0.005255 0.000000
-0.001136 0.005329 0.000000
-0.002290 0.005552 0.000000
-0.003480 0.005922 0.000000
0.003916 0.007291 0.000000
0.002581 0.006935 0.000000
0.001282 0.006722 0.000000
0.000000 0.006651 0.000000
-0.001282 0.006722 0.000000
-0.002581 0.006935 0.000000
-0.003916 0.007291 0.000000
0.004334 0.008803 0.000000
0.002860 0.008462 0.000000
0.001421 0.008257 0.000000
0.000000 0.008189 0.000000
-0.001421 0.008257 0.000000
-0.002860 0.008462 0.000000
-0.004334 0.008803 0.000000
0.004735 0.010451 0.000000
0.003127 0.010124 0.000000
0.001555 0.009928 0.000000
0.000000 0.009863 0.000000
-0.001555 0.009928 0.000000
-0.003127 0.010124 0.000000
-0.004735 0.010451 0.000000
0.005118 0.012229 0.000000
0.003382 0.011918 0.000000
0.001682 0.011731 0.000000
0.000000 0.011668 0.000000
-0.001682 0.011731 0.000000
-0.003382 0.011918 0.000000
-0.005118 0.012229 0.000000
0.005483 0.014132 0.000000
0.003625 0.013835 0.000000
0.001804 0.013657 0.000000
0.000000 0.013598 0.000000
-0.001804 0.013657 0.000000
-0.003625 0.013835 0.000000
-0.005483 0.014132 0.000000
0.005830 0.016154 0.000000
0.003857 0.015872 0.000000
0.001919 0.015703 0.000000
0.000000 0.015647 0.000000
-0.001919 0.015703 0.000000
-0.003857 0.015872 0.000000
-0.005830 0.016154 0.000000
0.006159 0.018288 0.000000
0.004076 0.018021 0.000000
0.002029 0.017861 0.000000
0.000000 0.017808 0.000000
-0.002029 0.017861 0.000000
-0.004076 0.018021 0.000000
-0.006159 0.018288 0.000000
0.006471 0.020530 0.000000
0.004284 0.020277 0.000000
0.002133 0.020126 0.000000
0.000000 0.020076 0.000000
-0.002133 0.020126 0.000000
-0.004284 0.020277 0.000000
-0.006471 0.020530 0.000000
0.006764 0.022872 0.000000
0.004480 0.022634 0.000000
0.002231 0.022492 0.000000
0.000000 0.022445 0.000000
-0.002231 0.022492 0.000000
-0.004480 0.022634 0.000000
-0.006764 0.022872 0.000000
0.007040 0.025309 0.000000
0.004664 0.025086 0.000000
0.002323 0.024953 0.000000
0.000000 0.024908 0.000000
-0.002323 0.024953 0.000000
-0.004664 0.025086 0.000000
-0.007040 0.025309 0.000000
0.007298 0.027835 0.000000
0.004836 0.027627 0.000000
0.002409 0.027503 0.000000
0.000000 0.027461 0.000000
-0.002409 0.027503 0.000000
-0.004836 0.027627 0.000000
-0.007298 0.027835 0.000000
0.007539 0.030444 0.000000
0.004996 0.030251 0.000000
0.002489 0.030136 0.000000
0.000000 0.030097 0.000000
-0.002489 0.030136 0.000000
-0.004996 0.030251 0.000000
-0.007539 0.030444 0.000000
0.007761 0.033131 0.000000
0.005145 0.032953 0.000000
0.002563 0.032846 0.000000
0.000000 0.032810 0.000000
-0.002563 0.032846 0.000000
-0.005145 0.032953 0.000000
-0.007761 0.033131 0.000000
0.007966 0.035888 0.000000
0.005281 0.035725 0.000000
0.002632 0.035627 0.000000
0.000000 0.035594 0.000000
-0.002632 0.035627 0.000000
-0.005281 0.035725 0.000000
-0.007966 0.035888 0.000000
0.008153 0.038711 0.000000
0.005406 0.038563 0.000000
0.002694 0.038474 0.000000
0.000000 0.038444 0.000000
-0.002694 0.038474 0.000000
-0.005406 0.038563 0.000000
-0.008153 0.038711 0.000000
0.008322 0.041593 0.000000
0.005518 0.041460 0.000000
0.002750 0.041380 0.000000
0.000000 0.041353 0.000000
-0.002750 0.041380 0.000000
-0.005518 0.041460 0.000000
-0.008322 0.041593 0.000000
0.008473 0.044529 0.000000
0.005619 0.044410 0.000000
0.002801 0.044339 0.000000
0.000000 0.044315 0.000000
-0.002801 0.044339 0.000000
-0.005619 0.044410 0.000000
-0.008473 0.044529 0.000000
0.008607 0.047512 0.000000
0.005708 0.047408 0.000000
0.002845 0.047346 0.000000
0.000000 0.047325 0.000000
-0.002845 0.047346 0.000000
-0.005708 0.047408 0.000000
-0.008607 0.047512 0.000000
0.008723 0.050537 0.000000
0.005785 0.050448 0.000000
0.002884 0.050394 0.000000
0.000000 0.050376 0.000000
-0.002884 0.050394 0.000000
-0.005785 0.050448 0.000000
-0.008723 0.050537 0.000000
0.008821 0.053597 0.000000
0.005851 0.053523 0.000000
0.002916 0.053478 0.000000
0.000000 0.053463 0.000000
-0.002916 0.053478 0.000000
-0.005851 0.053523 0.000000
-0.008821 0.053597 0.000000
0.008901 0.056687 0.000000
0.005904 0.056627 0.000000
0.002943 0.056592 0.000000
0.000000 0.056580 0.000000
-0.002943 0.056592 0.000000
-0.005904 0.056627 0.000000
-0.008901 0.056687 0.000000
0.008963 0.059800 0.000000
0.005945 0.059756 0.000000
0.002964 0.059729 0.000000
0.000000 0.059720 0.000000
-0.002964 0.059729 0.000000
-0.005945 0.059756 0.000000
-0.008963 0.059800 0.000000
0.009007 0.062931 0.000000
0.005975 0.062902 0.000000
0.002978 0.062885 0.000000
0.000000 0.062879 0.000000
-0.002978 0.062885 0.000000
-0.005975 0.062902 0.000000
-0.009007 0.062931 0.000000
0.009034 0.066075 0.000000
0.005992 0.066061 0.000000
0.002987 0.066051 0.000000
0.000000 0.066048 0.000000
-0.002987 0.066051 0.000000
-0.005992 0.066061 0.000000
-0.009034 0.066075 0.000000
CELL_DATA 256
SCALARS P float 1
LOOKUP_TABLE default
878.116200
627.050338
375.547426
126.616569
-126.616569
-375.547426
-627.050338
-878.116201
843.058648
605.294103
363.547042
120.625010
-120.625010
-363.547042
-605.294103
-843.058649
816.839529
583.457994
350.649877
117.100454
-117.100454
-350.649877
-583.457995
-816.839529
788.902858
563.855473
338.301899
112.803448
-112.803448
-338.301899
-563.855473
-788.902858
761.517061
543.872305
326.428753
108.775577
-108.775577
-326.428753
-543.872305
-761.517061
733.811991
524.193137
314.470034
104.863707
-104.863707
-314.470034
-524.193137
-733.811991
706.171472
504.376979
302.657109
100.855681
-100.855681
-302.657109
-504.376979
-706.171472
678.469023
484.632326
290.756418
96.939881
-96.939881
-290.756418
-484.632326
-678.469023
650.785878
464.836102
278.915165
92.956851
-92.956851
-278.915165
-464.836102
-650.785878
623.087735
445.068318
267.031081
89.020326
-89.020326
-267.031081
-445.068318
-623.087735
595.397945
425.280016
255.174372
85.051268
-85.051268
-255.174372
-425.280016
-595.397945
567.702792
405.504755
243.298397
81.104157
-81.104157
-243.298397
-405.504755
-567.702792
540.011353
385.720447
231.435388
77.141809
-77.141809
-231.435388
-385.720447
-540.011353
512.317418
365.942474
219.563155
73.190199
-73.190199
-219.563155
-365.942474
-512.317418
484.625377
346.159787
207.697797
69.230552
-69.230552
-207.697797
-346.159787
-484.625377
456.931795
326.380997
195.826766
65.277540
-65.277540
-195.826766
-326.380997
-456.931795
429.239684
306.598501
183.961143
61.318205
-61.318205
-183.961143
-306.598501
-429.239684
401.545934
286.820137
172.089491
57.365922
-57.365922
-172.089491
-286.820137
-401.545934
373.854261
267.036532
160.225481
53.404699
-53.404699
-160.225481
-267.036532
-373.854261
346.159720
247.260133
148.350955
49.455773
-49.455773
-148.350955
-247.260133
-346.159720
318.469282
227.473357
136.491549
45.489177
-45.489177
-136.491549
-227.473357
-318.469282
290.772724
207.701835
124.609967
41.548537
-41.548537
-124.609967
-207.701835
-290.772724
263.085179
187.907704
112.761426
37.569511
-37.569511
-112.761426
-187.907704
-263.085179
235.383838
168.147768
100.864148
33.647738
-33.647738
-100.864148
-168.147768
-235.383838
207.703909
148.337638
89.040780
29.641458
-29.641458
-89.040780
-148.337638
-207.703909
179.992407
128.607130
77.109792
25.760811
-25.760811
-77.109792
-128.607130
-179.992407
152.342501
108.761792
65.341898
21.697545
-21.697545
-65.341898
-108.761792
-152.342501
124.612746
89.109681
53.330857
17.890350
-17.890350
-53.330857
-89.109681
-124.612746
97.118029
69.140867
41.638276
13.721540
-13.721540
-41.638276
-69.140867
-97.118029
69.281099
49.672471
29.330780
9.881618
-9.881618
-29.330780
-49.672471
-69.281099
42.663020
28.799847
17.276509
5.669941
-5.669941
-17.276509
-28.799847
-42.663020
11.705585
7.889987
4.880972
1.650919
-1.650919
-4.880972
-7.889987
-11.705585
