# vtk DataFile Version 2.0
patchtest_tri3_mix
ASCII
DATASET POLYDATA
POINTS 45 float
0.000000 -0.500000 0.000000
1.000000 -0.500000 0.000000
1.000000 0.500000 0.000000
0.000000 0.500000 0.000000
0.200000 -0.500000 0.000000
0.400000 -0.500000 0.000000
0.600000 -0.500000 0.000000
0.800000 -0.500000 0.000000
1.000000 -0.300000 0.000000
1.000000 -0.100000 0.000000
1.000000 0.100000 0.000000
1.000000 0.300000 0.000000
0.800000 0.500000 0.000000
0.600000 0.500000 0.000000
0.400000 0.500000 0.000000
0.200000 0.500000 0.000000
0.000000 0.300000 0.000000
0.000000 0.100000 0.000000
0.000000 -0.100000 0.000000
0.000000 -0.300000 0.000000
0.121523 -0.318653 0.000000
0.349389 -0.248059 0.000000
0.453783 0.142425 0.000000
0.695753 -0.145146 0.000000
0.629792 0.183745 0.000000
0.553470 -0.197584 0.000000
0.660635 0.024187 0.000000
0.415903 0.337251 0.000000
0.599794 0.336119 0.000000
0.188716 -0.178995 0.000000
0.815001 0.203354 0.000000
0.152371 -0.047688 0.000000
0.286619 0.232263 0.000000
0.176477 0.351102 0.000000
0.374105 -0.113805 0.000000
0.276289 -0.366808 0.000000
0.507217 -0.024964 0.000000
0.845415 -0.323186 0.000000
0.487974 -0.345654 0.000000
0.298049 0.032649 0.000000
0.683101 -0.335984 0.000000
0.830390 0.035433 0.000000
0.840698 -0.145628 0.000000
0.145118 0.145555 0.000000
0.795576 0.353404 0.000000
POLYGONS 68 272
3 0 20 19
3 20 0 4
3 19 29 18
3 31 18 29
3 18 31 17
3 29 19 20
3 4 5 35
3 21 35 38
3 35 29 20
3 29 21 34
3 21 29 35
3 25 34 21
3 29 34 31
3 39 34 36
3 35 20 4
3 31 34 39
3 17 43 16
3 17 31 43
3 16 33 3
3 33 16 43
3 3 33 15
3 43 32 33
3 32 39 22
3 27 33 32
3 36 22 39
3 32 22 27
3 15 27 14
3 15 33 27
3 13 14 27
3 27 22 28
3 32 43 39
3 31 39 43
3 5 38 35
3 38 6 40
3 6 38 5
3 25 40 23
3 40 25 38
3 23 40 37
3 25 23 36
3 6 7 40
3 25 36 34
3 7 1 37
3 37 1 8
3 37 42 23
3 42 8 9
3 8 42 37
3 23 42 41
3 37 40 7
3 41 42 9
3 26 24 22
3 36 23 26
3 44 24 30
3 24 28 22
3 28 44 13
3 44 28 24
3 13 44 12
3 13 27 28
3 24 26 30
3 36 26 22
3 30 41 10
3 41 30 26
3 10 41 9
3 30 10 11
3 44 2 12
3 44 11 2
3 11 44 30
3 23 41 26
3 25 21 38
POINT_DATA 45
SCALARS P float 1
LOOKUP_TABLE default
2827.252675
-176.548761
160.260374
-4042.401974
4302.446027
3371.701932
1788.035309
940.194888
293.304435
-332.557275
130.306821
-45.227831
-2315.677900
-2105.826504
-3852.551606
-4698.318274
4702.661557
-4332.472771
4508.962640
-3266.840711
-4178.851415
1468.473546
-6106.644323
1414.565035
-435.212761
702.659228
-1799.587593
7195.605320
2182.784730
3232.547307
-3058.707193
2277.504349
-1868.950679
7764.082858
178.304632
-5937.222805
3933.947698
-819.053334
-3987.086243
655.993724
-1806.026852
1403.000715
168.622152
-5438.109121
4251.459257
