# vtk DataFile Version 2.0
patchtest_tri3_mix
ASCII
DATASET POLYDATA
POINTS 41 float
0.000000 -0.500000 0.000000
1.000000 -0.500000 0.000000
1.000000 0.500000 0.000000
0.000000 0.500000 0.000000
0.200000 -0.500000 0.000000
0.400000 -0.500000 0.000000
0.600000 -0.500000 0.000000
0.800000 -0.500000 0.000000
1.000000 -0.300000 0.000000
1.000000 -0.100000 0.000000
1.000000 0.100000 0.000000
1.000000 0.300000 0.000000
0.800000 0.500000 0.000000
0.600000 0.500000 0.000000
0.400000 0.500000 0.000000
0.200000 0.500000 0.000000
0.000000 0.300000 0.000000
0.000000 0.100000 0.000000
0.000000 -0.100000 0.000000
0.000000 -0.300000 0.000000
0.218732 0.339043 0.000000
0.427608 -0.321245 0.000000
0.342319 -0.148083 0.000000
0.458116 0.219983 0.000000
0.827921 -0.012150 0.000000
0.206507 -0.320653 0.000000
0.188646 0.044698 0.000000
0.590547 0.064023 0.000000
0.566478 -0.170299 0.000000
0.616364 0.351854 0.000000
0.338280 0.114354 0.000000
0.402825 0.344389 0.000000
0.710145 -0.079286 0.000000
0.822368 -0.254043 0.000000
0.181155 0.227182 0.000000
0.826217 0.344456 0.000000
0.665143 0.206526 0.000000
0.818059 0.160030 0.000000
0.174533 -0.123126 0.000000
0.436273 -0.021124 0.000000
0.654298 -0.329841 0.000000
POLYGONS 60 240
3 19 0 25
3 19 38 18
3 25 38 19
3 26 18 38
3 25 0 4
3 5 21 25
3 21 5 6
3 38 22 26
3 22 25 21
3 28 39 22
3 22 38 25
3 22 21 28
3 5 25 4
3 39 26 22
3 17 26 34
3 26 17 18
3 3 16 20
3 34 16 17
3 20 16 34
3 26 30 34
3 20 30 31
3 30 20 34
3 20 14 15
3 14 20 31
3 13 14 31
3 31 30 23
3 20 15 3
3 26 39 30
3 23 30 39
3 6 7 40
3 28 40 32
3 28 21 40
3 33 32 40
3 28 32 27
3 40 7 33
3 27 39 28
3 8 33 7
3 33 9 24
3 9 33 8
3 24 9 10
3 33 24 32
3 8 7 1
3 32 24 27
3 27 36 23
3 36 27 37
3 29 13 31
3 29 23 36
3 12 13 29
3 29 31 23
3 29 36 35
3 23 39 27
3 37 10 11
3 37 27 24
3 37 11 35
3 12 35 2
3 12 29 35
3 2 35 11
3 35 36 37
3 24 10 37
3 21 6 40
POINT_DATA 41
SCALARS P float 1
LOOKUP_TABLE default
1537.694758
369.860529
1154.506262
-3368.958234
95.388789
1120.832019
-788.740788
-659.885298
154.688393
-1711.002670
552.855566
-1607.768825
-4427.296205
-2777.580386
-6914.257902
-3616.186578
4083.033855
-3401.585767
2422.704499
-1695.445215
7939.096640
-484.926230
-1389.690056
-7772.302173
5505.387214
33.064427
2886.136941
1798.926131
-4437.351215
7146.714981
-7002.965869
11475.708683
-1511.083200
-812.711904
-4968.520932
6583.448930
-4467.864087
-4849.457515
110.306306
8433.290925
3444.148879
