# vtk DataFile Version 2.0
cantilever_tri6_mix
ASCII
DATASET POLYDATA
POINTS 20 float
0.000000 -6.000000 0.000000
48.000000 -6.000000 0.000000
48.000000 6.000000 0.000000
0.000000 6.000000 0.000000
12.000000 -6.000000 0.000000
24.000000 -6.000000 0.000000
36.000000 -6.000000 0.000000
36.000000 6.000000 0.000000
24.000000 6.000000 0.000000
12.000000 6.000000 0.000000
17.934284 -3.332367 0.000000
36.020241 -0.004240 0.000000
29.997390 -3.362368 0.000000
4.752386 -0.002487 0.000000
42.054886 3.300089 0.000000
42.039537 -3.382987 0.000000
17.934352 3.332142 0.000000
29.998525 3.356724 0.000000
11.722810 -0.000003 0.000000
23.970106 -0.000263 0.000000
POLYGONS 28 112
3 0 13 3
3 13 0 4
3 4 5 10
3 10 5 19
3 13 4 18
3 18 4 10
3 13 9 3
3 9 13 18
3 18 16 9
3 18 10 16
3 16 19 8
3 9 16 8
3 10 19 16
3 5 12 19
3 12 6 11
3 6 12 5
3 14 11 15
3 15 11 6
3 1 15 6
3 14 15 1
3 12 11 17
3 8 17 7
3 8 19 17
3 7 14 2
3 7 17 11
3 2 14 1
3 11 14 7
3 17 19 12
POINT_DATA 20
SCALARS P float 1
LOOKUP_TABLE default
1040.420019
-72.329084
72.758909
-1040.010646
696.495514
404.441686
230.534714
-234.479523
-408.412794
-699.881308
535.891232
2.032302
276.835731
0.972614
-141.081029
142.795407
-527.449417
-268.181519
-0.572932
-6.510432
