# vtk DataFile Version 2.0
cantilever_quad8_mix
ASCII
DATASET POLYDATA
POINTS 15 float
0.000000 0.000000 0.000000
48.000000 44.000000 0.000000
48.000000 60.000000 0.000000
0.000000 44.000000 0.000000
12.000000 11.000000 0.000000
24.000000 22.000000 0.000000
36.000000 33.000000 0.000000
48.000000 52.000000 0.000000
36.000000 56.000000 0.000000
24.000000 52.000000 0.000000
12.000000 48.000000 0.000000
0.000000 22.000000 0.000000
12.000000 29.500000 0.000000
24.000000 37.000000 0.000000
36.000000 44.500000 0.000000
POLYGONS 1838 7352
3 0 4 159
3 4 5 186
3 159 186 158
3 159 4 186
3 804 6 913
3 804 186 5
3 6 804 5
3 186 804 865
3 7 8 400
3 9 10 404
3 8 9 538
3 844 913 400
3 400 913 7
3 400 538 249
3 404 538 9
3 400 8 538
3 804 913 599
3 482 404 852
3 7 913 6
3 538 404 482
3 158 597 157
3 804 599 865
3 601 865 990
3 865 597 186
3 158 186 597
3 597 865 926
3 156 157 926
3 156 926 701
3 926 157 597
3 865 601 926
3 601 643 926
3 865 599 990
3 844 249 371
3 913 844 599
3 371 482 192
3 482 371 249
3 249 538 482
3 844 371 531
3 685 990 531
3 990 599 531
3 371 668 531
3 852 682 192
3 358 371 192
3 601 990 437
3 852 192 482
3 531 599 844
3 400 249 844
3 358 192 682
3 404 10 885
3 11 12 432
3 12 13 884
3 432 851 885
3 885 11 432
3 884 14 690
3 884 432 12
3 14 884 13
3 884 397 432
3 885 852 404
3 291 15 16
3 16 17 325
3 238 925 897
3 569 325 17
3 803 690 291
3 690 15 291
3 291 325 670
3 569 182 325
3 16 325 291
3 884 690 191
3 436 897 569
3 15 690 14
3 569 897 182
3 480 852 851
3 851 852 885
3 480 851 397
3 397 851 432
3 884 191 397
3 629 397 191
3 488 480 629
3 629 480 397
3 629 785 407
3 301 264 785
3 629 191 785
3 682 480 557
3 785 191 803
3 852 480 682
3 301 803 670
3 803 291 670
3 670 182 221
3 925 182 897
3 191 690 803
3 925 221 182
3 301 220 264
3 220 301 221
3 221 611 220
3 611 221 925
3 301 670 221
3 264 220 782
3 611 522 987
3 803 301 785
3 182 670 325
3 864 220 611
3 611 925 522
3 885 10 11
3 391 785 264
3 437 643 601
3 990 685 437
3 437 685 733
3 926 643 701
3 155 355 154
3 155 701 355
3 355 643 477
3 437 477 643
3 701 643 355
3 733 477 437
3 685 640 733
3 701 155 156
3 208 338 668
3 685 531 338
3 668 358 303
3 358 682 195
3 371 358 668
3 195 394 358
3 954 640 208
3 640 338 208
3 208 303 732
3 394 303 358
3 668 303 208
3 733 640 794
3 394 399 714
3 338 640 685
3 531 668 338
3 303 394 462
3 154 991 153
3 154 355 991
3 991 477 162
3 733 794 162
3 355 477 991
3 477 733 162
3 153 693 152
3 153 991 693
3 162 458 693
3 458 162 794
3 991 162 693
3 516 693 458
3 794 793 458
3 602 954 732
3 794 640 954
3 602 732 462
3 714 462 394
3 208 732 954
3 209 462 714
3 689 793 909
3 793 954 909
3 909 602 198
3 209 602 462
3 954 602 909
3 458 793 580
3 209 714 205
3 954 793 794
3 303 462 732
3 198 602 209
3 394 195 399
3 348 557 488
3 195 682 557
3 488 407 734
3 407 785 391
3 480 488 557
3 391 855 407
3 348 856 399
3 399 195 348
3 735 348 734
3 855 734 407
3 348 488 734
3 734 855 639
3 391 877 855
3 348 195 557
3 871 782 864
3 327 264 782
3 542 987 295
3 987 542 864
3 220 864 782
3 871 864 542
3 565 877 327
3 264 877 391
3 448 782 871
3 542 824 871
3 327 782 448
3 877 719 855
3 295 987 390
3 264 327 877
3 987 864 611
3 542 295 824
3 856 735 513
3 856 348 735
3 735 639 777
3 639 855 719
3 734 639 735
3 378 639 719
3 463 513 777
3 513 735 777
3 777 378 314
3 836 378 719
3 639 378 777
3 378 836 314
3 719 565 836
3 856 205 714
3 836 713 223
3 565 327 713
3 713 448 829
3 824 448 871
3 719 877 565
3 767 448 824
3 829 767 334
3 767 829 448
3 587 334 310
3 310 334 767
3 767 824 310
3 223 713 829
3 824 295 310
3 713 836 565
3 713 327 448
3 829 334 178
3 295 931 310
3 856 714 399
3 407 488 629
3 856 513 205
3 18 569 17
3 18 19 436
3 19 20 960
3 436 960 815
3 436 19 960
3 449 21 827
3 449 960 20
3 21 449 20
3 609 960 449
3 436 815 897
3 22 23 695
3 24 25 439
3 23 24 704
3 609 449 827
3 827 22 695
3 695 704 527
3 695 23 704
3 24 439 704
3 285 704 439
3 439 842 825
3 22 827 21
3 333 827 695
3 815 560 238
3 815 960 560
3 560 609 227
3 609 827 935
3 960 609 560
3 227 609 935
3 238 539 522
3 238 560 539
3 539 227 773
3 539 560 227
3 935 536 227
3 536 214 227
3 935 333 536
3 238 897 815
3 508 333 527
3 333 935 827
3 527 285 573
3 825 285 439
3 695 527 333
3 825 573 285
3 683 353 508
3 508 353 333
3 508 573 383
3 835 573 825
3 508 527 573
3 573 835 383
3 825 351 835
3 333 353 536
3 285 527 704
3 214 536 353
3 439 25 842
3 522 925 238
3 26 27 896
3 27 28 548
3 896 475 842
3 842 26 896
3 548 29 631
3 548 896 27
3 29 548 28
3 548 659 896
3 26 842 25
3 30 31 216
3 317 32 979
3 31 32 317
3 730 548 631
3 631 30 216
3 911 33 34
3 317 216 31
3 32 33 979
3 216 317 423
3 30 631 29
3 216 985 631
3 724 475 659
3 475 896 659
3 659 730 298
3 730 631 985
3 548 730 659
3 985 576 730
3 904 351 724
3 724 351 475
3 724 298 440
3 576 298 730
3 724 659 298
3 298 576 634
3 985 709 576
3 351 825 475
3 423 686 806
3 423 317 686
3 686 979 471
3 911 979 33
3 985 216 423
3 471 979 911
3 576 709 290
3 709 423 806
3 584 471 951
3 584 806 686
3 471 584 686
3 657 709 806
3 471 339 951
3 423 709 985
3 979 686 317
3 976 835 351
3 471 911 339
3 475 825 842
3 806 584 188
3 773 280 539
3 508 383 683
3 773 214 269
3 539 280 522
3 390 280 908
3 280 390 522
3 586 908 269
3 908 280 773
3 773 269 908
3 447 390 908
3 214 664 269
3 295 390 447
3 559 903 683
3 903 214 353
3 683 383 328
3 383 835 976
3 353 683 903
3 976 964 383
3 252 664 559
3 664 903 559
3 559 328 203
3 964 328 383
3 683 328 559
3 964 795 328
3 964 218 787
3 903 664 214
3 227 214 773
3 664 989 269
3 447 761 638
3 761 447 586
3 761 586 598
3 586 269 989
3 447 908 586
3 598 586 989
3 931 638 379
3 295 638 931
3 598 246 761
3 379 638 761
3 379 761 246
3 306 931 379
3 989 510 598
3 295 447 638
3 232 252 203
3 989 664 252
3 335 203 795
3 203 328 795
3 559 203 252
3 211 795 787
3 619 510 232
3 232 510 252
3 484 232 335
3 335 232 203
3 795 211 335
3 899 598 510
3 787 467 211
3 252 510 989
3 964 787 795
3 335 211 514
3 964 976 218
3 987 522 390
3 313 904 440
3 904 724 440
3 634 290 780
3 634 440 298
3 976 351 904
3 200 440 634
3 313 797 218
3 218 904 313
3 282 200 780
3 200 313 440
3 780 200 634
3 200 874 313
3 290 545 780
3 904 218 976
3 657 188 166
3 657 806 188
3 172 765 809
3 765 188 584
3 290 709 657
3 188 765 678
3 282 780 545
3 545 657 166
3 166 678 549
3 678 166 188
3 172 678 765
3 161 545 166
3 169 172 270
3 657 545 290
3 634 576 290
3 169 678 172
3 973 797 874
3 797 313 874
3 848 235 859
3 282 235 874
3 200 282 874
3 293 874 235
3 999 467 973
3 467 797 973
3 343 293 848
3 293 973 874
3 848 293 235
3 211 467 271
3 235 282 859
3 467 787 797
3 859 161 802
3 859 545 161
3 549 169 933
3 549 161 166
3 282 545 859
3 161 549 743
3 520 848 802
3 802 161 743
3 743 933 428
3 270 610 933
3 549 933 743
3 507 802 743
3 270 933 169
3 859 802 848
3 549 678 169
3 293 503 973
3 951 809 765
3 797 787 218
3 584 951 765
3 587 310 931
3 696 911 34
3 569 18 436
3 610 428 933
3 580 516 458
3 793 689 580
3 580 689 176
3 693 516 152
3 281 151 516
3 516 151 152
3 635 738 176
3 738 516 580
3 580 176 738
3 281 516 738
3 689 788 176
3 198 942 788
3 198 209 942
3 209 846 942
3 205 513 697
3 909 198 689
3 846 205 697
3 176 788 692
3 788 942 731
3 731 846 674
3 381 846 697
3 942 846 731
3 674 846 381
3 697 850 381
3 198 788 689
3 846 209 205
3 731 692 788
3 977 150 281
3 281 150 151
3 868 940 870
3 940 281 738
3 635 940 738
3 977 281 940
3 149 977 626
3 977 149 150
3 224 626 868
3 868 626 977
3 977 940 868
3 149 626 148
3 940 635 870
3 692 167 612
3 692 731 167
3 674 816 167
3 674 381 816
3 176 692 635
3 167 816 445
3 341 870 612
3 612 870 692
3 612 445 691
3 445 612 167
3 816 180 445
3 868 870 316
3 816 645 180
3 692 870 635
3 674 167 731
3 210 445 180
3 816 381 645
3 463 697 513
3 777 314 463
3 836 263 314
3 463 314 906
3 342 850 906
3 850 463 906
3 263 948 906
3 673 948 263
3 314 263 906
3 945 906 948
3 263 223 673
3 342 381 850
3 178 768 813
3 178 334 768
3 768 587 302
3 334 587 768
3 223 829 178
3 587 931 571
3 948 673 292
3 673 178 813
3 302 571 262
3 768 497 813
3 571 302 587
3 292 673 813
3 262 571 912
3 178 673 223
3 571 931 306
3 302 497 768
3 168 645 342
3 381 342 645
3 948 359 945
3 945 342 906
3 359 948 292
3 486 342 945
3 946 168 486
3 168 342 486
3 359 651 970
3 970 486 945
3 359 970 945
3 180 168 257
3 359 292 769
3 645 168 180
3 700 251 497
3 251 292 813
3 450 262 744
3 450 497 302
3 302 262 450
3 700 497 450
3 700 938 251
3 938 769 251
3 189 655 604
3 450 410 700
3 744 655 450
3 359 769 651
3 744 262 422
3 251 769 292
3 813 497 251
3 970 556 486
3 604 655 744
3 850 697 463
3 263 836 223
3 450 655 410
3 626 464 148
3 626 224 464
3 464 224 493
3 148 464 147
3 147 915 146
3 147 464 915
3 873 915 493
3 915 464 493
3 224 202 493
3 202 606 493
3 224 316 202
3 375 316 341
3 224 868 316
3 445 210 691
3 316 870 341
3 257 210 180
3 375 341 691
3 202 375 660
3 375 691 600
3 210 441 600
3 441 210 257
3 691 210 600
3 375 600 193
3 441 834 294
3 316 375 202
3 341 612 691
3 881 600 441
3 145 146 873
3 145 873 144
3 873 146 915
3 606 873 493
3 143 873 606
3 144 3 145
3 142 143 606
3 144 873 143
3 606 660 142
3 141 660 193
3 606 202 660
3 881 294 139
3 660 375 193
3 881 193 600
3 140 193 881
3 140 141 193
3 138 139 294
3 140 881 139
3 138 294 305
3 660 141 142
3 441 294 881
3 834 441 257
3 729 946 556
3 946 486 556
3 970 260 556
3 650 651 938
3 257 168 946
3 650 260 651
3 305 834 729
3 834 946 729
3 283 556 260
3 681 260 650
3 729 556 283
3 681 283 260
3 650 473 681
3 946 834 257
3 661 473 650
3 661 938 410
3 661 410 711
3 189 410 655
3 938 700 410
3 711 410 189
3 384 473 362
3 473 661 362
3 711 826 362
3 826 711 189
3 661 711 362
3 473 978 681
3 826 311 525
3 661 650 938
3 651 769 938
3 344 362 826
3 305 170 136
3 305 729 170
3 283 894 170
3 283 681 894
3 729 283 170
3 170 894 135
3 136 137 305
3 134 135 894
3 136 170 135
3 894 978 134
3 137 138 305
3 133 978 384
3 681 978 894
3 384 344 132
3 384 362 344
3 384 978 473
3 525 130 344
3 132 133 384
3 130 131 344
3 132 344 131
3 525 129 130
3 978 133 134
3 826 525 344
3 222 826 189
3 305 294 834
3 260 970 651
3 340 571 306
3 541 340 246
3 340 912 571
3 246 598 899
3 541 246 899
3 422 912 798
3 912 340 798
3 541 959 798
3 620 959 541
3 340 541 798
3 751 798 959
3 541 899 620
3 340 306 246
3 476 619 484
3 619 232 484
3 514 271 406
3 514 484 335
3 271 514 211
3 256 484 514
3 273 620 476
3 620 619 476
3 476 256 361
3 406 256 514
3 484 256 476
3 620 273 959
3 406 712 401
3 619 620 899
3 246 306 379
3 406 320 256
3 459 422 751
3 422 798 751
3 540 174 993
3 174 751 959
3 273 174 959
3 429 751 174
3 843 604 459
3 604 744 459
3 843 459 429
3 429 459 751
3 174 540 429
3 540 412 429
3 174 273 993
3 744 422 459
3 727 361 320
3 361 273 476
3 718 401 875
3 401 718 320
3 320 406 401
3 727 320 718
3 434 993 727
3 727 993 361
3 641 969 875
3 718 994 727
3 718 875 969
3 993 434 540
3 875 401 233
3 361 993 273
3 256 320 361
3 718 969 994
3 712 406 271
3 604 222 189
3 558 999 503
3 999 973 503
3 503 293 278
3 558 503 278
3 562 712 237
3 712 271 237
3 177 237 558
3 669 558 278
3 237 999 558
3 892 558 669
3 278 435 669
3 237 271 999
3 343 520 435
3 343 848 520
3 507 428 796
3 520 802 507
3 743 428 507
3 520 507 796
3 530 435 796
3 435 520 796
3 433 428 776
3 953 796 428
3 428 433 953
3 435 698 669
3 428 610 776
3 343 435 278
3 467 999 271
3 530 796 953
3 233 562 177
3 562 237 177
3 892 698 173
3 892 177 558
3 698 892 669
3 485 177 892
3 736 233 485
3 233 177 485
3 726 687 173
3 687 485 892
3 173 687 892
3 577 485 687
3 698 530 173
3 233 401 562
3 530 284 849
3 530 953 284
3 512 212 420
3 212 284 953
3 698 435 530
3 284 212 924
3 173 849 867
3 849 284 268
3 268 924 506
3 268 284 924
3 212 512 924
3 849 268 867
3 479 212 433
3 530 849 173
3 212 953 433
3 233 736 875
3 433 776 479
3 562 401 712
3 899 510 619
3 924 512 618
3 540 183 412
3 412 843 429
3 412 183 289
3 843 412 241
3 222 241 311
3 222 843 241
3 289 336 771
3 241 412 289
3 183 336 289
3 241 289 347
3 183 666 336
3 843 222 604
3 666 434 994
3 434 727 994
3 370 641 916
3 370 994 969
3 641 370 969
3 666 994 370
3 666 332 336
3 666 370 332
3 916 684 402
3 332 370 916
3 641 684 916
3 332 916 616
3 684 988 920
3 434 666 183
3 434 183 540
3 336 332 663
3 753 129 525
3 311 241 753
3 753 347 128
3 753 241 347
3 771 347 289
3 127 347 771
3 128 129 753
3 126 127 771
3 128 347 127
3 771 663 126
3 525 311 753
3 663 616 125
3 336 663 771
3 402 920 122
3 663 332 616
3 616 916 402
3 616 402 124
3 124 125 616
3 122 123 402
3 124 402 123
3 920 121 122
3 663 125 126
3 684 920 402
3 684 641 995
3 311 826 222
3 312 995 736
3 641 875 995
3 736 577 312
3 577 687 726
3 875 736 995
3 726 811 577
3 869 988 312
3 312 988 995
3 312 811 869
3 288 898 811
3 312 577 811
3 898 869 811
3 811 726 288
3 902 920 988
3 867 749 288
3 867 268 749
3 749 506 775
3 749 268 506
3 924 618 506
3 974 506 618
3 898 288 837
3 837 288 749
3 974 461 971
3 775 506 974
3 618 461 974
3 775 974 750
3 461 618 762
3 867 288 726
3 485 577 736
3 775 837 749
3 902 869 502
3 869 902 988
3 502 998 119
3 502 869 898
3 998 502 898
3 902 502 120
3 120 121 902
3 118 119 998
3 120 502 119
3 998 590 118
3 121 920 902
3 590 117 118
3 837 775 590
3 750 971 115
3 590 775 750
3 974 971 750
3 590 750 117
3 116 117 750
3 114 115 971
3 116 750 115
3 114 971 411
3 590 998 837
3 898 837 998
3 762 618 512
3 988 684 995
3 726 173 867
3 461 411 971
3 262 912 422
3 278 293 343
3 610 937 776
3 35 36 905
3 36 37 789
3 905 544 696
3 696 35 905
3 789 38 494
3 789 905 36
3 38 789 37
3 789 489 905
3 696 339 911
3 39 40 248
3 41 42 605
3 40 41 245
3 838 494 248
3 248 494 39
3 248 245 758
3 605 245 41
3 248 40 245
3 605 972 245
3 42 297 605
3 39 494 38
3 494 930 789
3 430 339 544
3 544 905 489
3 544 489 628
3 489 789 930
3 339 696 544
3 930 403 489
3 215 430 628
3 628 430 544
3 725 403 279
3 403 628 489
3 930 279 403
3 658 628 403
3 930 838 279
3 430 809 951
3 812 838 758
3 838 248 758
3 605 468 972
3 972 758 245
3 930 494 838
3 929 758 972
3 886 812 929
3 812 758 929
3 900 742 468
3 742 929 972
3 468 742 972
3 279 812 722
3 468 297 405
3 838 812 279
3 605 297 468
3 929 742 886
3 42 43 297
3 696 34 35
3 43 44 603
3 603 44 907
3 596 907 45
3 45 907 44
3 46 622 596
3 622 46 47
3 45 46 596
3 622 754 596
3 603 405 297
3 47 48 890
3 49 50 676
3 48 49 890
3 417 890 676
3 890 49 676
3 927 307 863
3 307 676 50
3 51 307 50
3 654 622 890
3 47 890 622
3 307 261 676
3 405 603 680
3 680 603 907
3 219 754 300
3 219 907 596
3 754 219 596
3 680 907 219
3 932 900 680
3 680 900 405
3 677 578 300
3 578 680 219
3 219 300 578
3 578 932 680
3 754 389 300
3 900 468 405
3 372 654 417
3 654 754 622
3 230 417 261
3 417 676 261
3 417 654 890
3 368 261 927
3 190 389 372
3 372 389 654
3 372 230 190
3 368 230 261
3 372 417 230
3 368 366 230
3 368 839 254
3 654 389 754
3 307 927 261
3 900 636 742
3 839 368 927
3 297 43 603
3 389 677 300
3 403 725 658
3 658 215 628
3 658 725 966
3 215 658 196
3 774 801 172
3 809 215 774
3 196 966 772
3 774 215 196
3 658 966 196
3 774 196 862
3 725 810 966
3 215 809 430
3 807 287 722
3 287 279 722
3 722 886 492
3 886 742 322
3 812 886 722
3 322 492 886
3 745 810 807
3 810 287 807
3 807 492 574
3 555 492 322
3 722 492 807
3 966 810 393
3 649 555 367
3 287 810 725
3 279 287 725
3 492 555 574
3 801 862 187
3 801 774 862
3 772 393 470
3 772 862 196
3 772 966 393
3 862 772 331
3 610 187 487
3 270 801 187
3 345 331 470
3 331 187 862
3 470 331 772
3 487 187 331
3 393 570 470
3 270 172 801
3 745 595 258
3 595 745 574
3 574 649 595
3 649 574 555
3 393 810 745
3 595 649 323
3 185 570 258
3 258 570 745
3 917 323 880
3 595 961 258
3 649 880 323
3 470 570 392
3 880 649 367
3 745 570 393
3 574 745 807
3 961 595 323
3 555 322 770
3 809 774 172
3 231 636 932
3 322 742 636
3 861 677 703
3 861 932 578
3 677 861 578
3 231 932 861
3 832 770 231
3 231 770 636
3 491 799 703
3 799 231 861
3 861 703 799
3 799 832 231
3 677 566 703
3 770 367 555
3 821 566 190
3 566 677 389
3 975 190 366
3 190 230 366
3 190 566 389
3 847 366 254
3 496 265 821
3 821 265 566
3 821 975 614
3 847 975 366
3 821 190 975
3 847 779 975
3 847 398 309
3 566 265 703
3 368 254 366
3 265 491 703
3 457 367 832
3 832 367 770
3 705 491 438
3 705 832 799
3 491 705 799
3 457 832 705
3 457 858 880
3 457 705 543
3 395 543 438
3 543 705 438
3 491 791 438
3 791 981 438
3 265 791 491
3 457 880 367
3 496 614 833
3 265 496 791
3 614 779 505
3 975 779 614
3 614 496 821
3 387 779 309
3 833 385 259
3 259 496 833
3 446 505 387
3 505 833 614
3 387 505 779
3 505 225 833
3 309 579 387
3 496 259 791
3 847 309 779
3 457 543 858
3 398 847 254
3 770 322 636
3 900 932 636
3 981 791 259
3 863 307 51
3 951 339 430
3 52 53 613
3 53 54 921
3 613 747 863
3 863 52 613
3 921 55 808
3 921 613 53
3 55 921 54
3 921 593 613
3 52 863 51
3 56 57 910
3 58 59 667
3 57 58 474
3 921 808 564
3 808 56 910
3 922 910 474
3 910 57 474
3 58 667 474
3 808 910 585
3 667 941 790
3 56 808 55
3 568 474 667
3 592 747 593
3 593 747 613
3 752 299 675
3 564 299 593
3 593 921 564
3 592 593 299
3 567 398 254
3 567 839 592
3 567 592 632
3 299 632 592
3 839 747 592
3 299 752 632
3 299 564 675
3 839 927 747
3 501 585 922
3 922 585 910
3 568 790 720
3 568 922 474
3 667 790 568
3 828 922 568
3 426 675 501
3 501 675 585
3 501 828 860
3 828 501 922
3 568 720 828
3 426 752 675
3 790 472 720
3 585 675 564
3 564 808 585
3 720 694 828
3 667 59 941
3 254 839 567
3 60 61 941
3 61 62 980
3 986 941 980
3 941 61 980
3 357 63 944
3 357 980 62
3 63 357 62
3 706 980 357
3 986 790 941
3 64 65 469
3 66 1 67
3 65 66 624
3 882 944 469
3 944 64 469
3 624 67 68
3 624 469 65
3 67 624 66
3 357 944 451
3 64 944 63
3 814 469 624
3 986 706 943
3 986 980 706
3 706 451 481
3 706 357 451
3 882 451 944
3 160 451 882
3 943 652 472
3 472 986 943
3 217 481 160
3 481 943 706
3 160 481 451
3 481 528 943
3 882 517 160
3 472 790 986
3 814 515 213
3 814 624 515
3 68 69 515
3 882 469 814
3 515 69 329
3 893 517 213
3 213 517 814
3 431 213 329
3 329 213 515
3 69 70 329
3 517 217 160
3 814 517 882
3 515 624 68
3 720 472 721
3 941 59 60
3 70 71 329
3 567 547 398
3 547 567 632
3 547 632 460
3 398 547 746
3 460 553 746
3 746 547 460
3 163 460 857
3 426 267 857
3 632 857 460
3 267 234 857
3 632 752 857
3 746 579 309
3 267 860 947
3 426 501 860
3 419 495 721
3 694 495 860
3 828 694 860
3 947 860 495
3 582 234 947
3 234 267 947
3 901 419 537
3 901 947 495
3 495 419 901
3 582 947 901
3 495 694 721
3 267 426 860
3 752 426 857
3 234 163 857
3 997 579 553
3 553 579 746
3 625 952 330
3 163 952 553
3 553 460 163
3 997 553 952
3 446 387 707
3 594 707 997
3 997 625 594
3 625 997 952
3 707 579 997
3 671 594 625
3 952 163 330
3 707 387 579
3 702 524 582
3 524 163 234
3 901 376 583
3 583 582 901
3 234 582 524
3 702 582 583
3 702 672 524
3 524 672 330
3 656 561 376
3 561 702 583
3 583 376 561
3 625 330 963
3 537 509 376
3 524 330 163
3 376 901 537
3 594 627 707
3 419 662 537
3 398 746 309
3 652 662 419
3 721 472 652
3 481 642 528
3 652 943 528
3 694 720 721
3 652 528 589
3 240 662 589
3 662 652 589
3 642 418 589
3 710 418 642
3 528 642 589
3 418 240 589
3 642 217 710
3 662 521 537
3 550 710 893
3 893 710 217
3 550 893 431
3 431 893 213
3 71 760 329
3 431 329 760
3 710 550 784
3 550 431 374
3 374 760 928
3 72 760 71
3 431 760 374
3 928 760 72
3 710 784 418
3 217 517 893
3 374 253 550
3 509 521 240
3 521 662 240
3 646 748 416
3 748 646 240
3 418 748 240
3 509 240 646
3 408 853 509
3 853 376 509
3 416 887 646
3 739 509 646
3 739 646 887
3 408 509 739
3 748 679 416
3 537 521 509
3 784 253 679
3 784 550 253
3 374 621 253
3 73 928 72
3 928 621 374
3 226 928 73
3 416 679 996
3 679 253 845
3 845 621 817
3 226 621 928
3 253 621 845
3 845 996 679
3 73 74 226
3 784 679 748
3 784 748 418
3 376 853 656
3 721 652 419
3 217 642 481
3 226 817 621
3 927 863 747
3 630 702 561
3 331 647 487
3 331 345 647
3 647 345 831
3 487 647 937
3 937 319 479
3 937 647 319
3 319 831 968
3 319 647 831
3 345 352 831
3 352 483 831
3 345 392 352
3 937 610 487
3 633 392 185
3 470 392 345
3 185 961 275
3 323 917 277
3 185 392 570
3 277 961 323
3 197 633 275
3 633 185 275
3 275 277 723
3 194 277 917
3 961 277 275
3 352 633 466
3 917 737 194
3 392 633 352
3 961 185 258
3 723 277 194
3 479 529 420
3 479 319 529
3 529 968 164
3 529 319 968
3 483 968 831
3 854 968 483
3 452 762 512
3 420 529 452
3 452 164 983
3 452 529 164
3 968 854 164
3 854 934 164
3 483 623 854
3 420 212 479
3 409 466 197
3 466 633 197
3 197 723 830
3 377 723 194
3 483 352 466
3 377 830 723
3 533 623 409
3 623 466 409
3 830 518 409
3 518 830 377
3 197 830 409
3 369 854 623
3 518 377 511
3 466 623 483
3 197 275 723
3 518 535 409
3 194 939 377
3 479 776 937
3 395 315 543
3 880 858 917
3 395 981 500
3 543 315 858
3 386 737 315
3 315 737 858
3 759 499 500
3 499 315 395
3 395 500 499
3 386 315 499
3 981 717 500
3 939 194 737
3 717 385 175
3 981 259 717
3 385 225 699
3 385 833 225
3 385 717 259
3 171 225 446
3 840 175 699
3 175 385 699
3 699 171 364
3 627 425 171
3 225 171 699
3 425 364 171
3 171 446 627
3 500 717 759
3 981 395 438
3 175 759 717
3 895 939 386
3 386 939 737
3 781 766 872
3 204 499 766
3 499 759 766
3 386 499 204
3 918 498 895
3 498 939 895
3 895 204 236
3 781 204 766
3 386 204 895
3 511 377 498
3 766 759 876
3 498 377 939
3 866 876 840
3 759 175 876
3 840 364 363
3 324 364 425
3 840 876 175
3 324 363 364
3 581 872 866
3 872 876 866
3 454 840 363
3 413 363 324
3 866 840 454
3 872 554 781
3 413 519 764
3 876 872 766
3 699 364 840
3 204 781 236
3 425 532 324
3 737 917 858
3 446 225 505
3 363 413 454
3 762 452 983
3 164 934 983
3 934 854 369
3 326 934 369
3 607 983 575
3 983 607 762
3 206 575 326
3 575 983 934
3 934 326 575
3 958 607 575
3 369 546 326
3 607 411 461
3 165 533 535
3 533 409 535
3 518 728 535
3 382 511 918
3 369 623 533
3 382 728 511
3 879 546 165
3 546 533 165
3 296 535 728
3 563 728 382
3 165 535 296
3 823 326 546
3 957 563 415
3 533 546 369
3 511 728 518
3 296 728 563
3 113 411 958
3 411 607 958
3 112 958 206
3 206 326 823
3 575 206 958
3 111 206 823
3 112 113 958
3 110 111 823
3 112 206 111
3 823 109 110
3 411 113 114
3 879 534 108
3 879 165 534
3 296 957 534
3 957 296 563
3 823 546 879
3 534 957 107
3 108 109 879
3 106 107 957
3 108 534 107
3 106 957 415
3 879 109 823
3 296 534 165
3 563 382 354
3 461 762 607
3 716 918 236
3 918 511 498
3 250 554 526
3 250 236 781
3 554 250 781
3 716 236 250
3 354 716 360
3 354 382 716
3 350 360 526
3 360 716 250
3 250 526 360
3 354 360 936
3 554 608 526
3 354 415 563
3 581 591 424
3 581 866 591
3 454 490 591
3 454 413 490
3 872 581 554
3 591 490 805
3 526 608 965
3 608 581 424
3 181 490 764
3 805 424 591
3 490 181 805
3 424 805 883
3 413 764 490
3 581 608 554
3 454 591 866
3 424 615 608
3 415 936 105
3 350 936 360
3 350 965 102
3 965 350 526
3 415 354 936
3 936 350 103
3 104 105 936
3 102 103 350
3 104 936 103
3 965 101 102
3 415 105 106
3 100 615 883
3 615 424 883
3 98 455 97
3 455 883 805
3 965 608 615
3 99 883 455
3 100 101 615
3 98 99 455
3 100 883 99
3 199 455 181
3 615 101 965
3 455 805 181
3 181 764 465
3 382 918 716
3 895 236 918
3 413 324 519
3 512 420 452
3 707 627 446
3 671 443 594
3 625 967 671
3 594 443 627
3 443 532 425
3 443 671 247
3 247 967 923
3 891 286 967
3 671 967 247
3 286 923 967
3 967 963 891
3 532 443 247
3 478 891 672
3 891 963 330
3 478 672 630
3 630 672 702
3 349 561 656
3 630 561 349
3 919 478 349
3 349 478 630
3 318 239 756
3 756 349 656
3 656 763 756
3 648 891 478
3 853 763 656
3 286 891 648
3 963 967 625
3 349 756 239
3 532 984 442
3 532 247 984
3 984 923 421
3 923 286 914
3 923 984 247
3 421 923 914
3 442 888 519
3 442 984 888
3 421 708 888
3 708 421 914
3 984 421 888
3 786 888 708
3 708 914 346
3 442 324 532
3 648 572 982
3 572 648 919
3 919 239 572
3 239 919 349
3 648 914 286
3 572 239 274
3 255 982 274
3 274 982 572
3 356 365 321
3 365 356 274
3 274 239 365
3 346 914 982
3 365 239 318
3 648 982 914
3 478 919 648
3 274 356 255
3 756 763 318
3 324 442 519
3 408 739 820
3 408 763 853
3 416 996 822
3 887 416 822
3 741 276 820
3 820 276 408
3 822 637 304
3 304 820 887
3 887 822 304
3 304 741 820
3 822 996 551
3 276 318 763
3 201 456 817
3 456 996 845
3 226 373 817
3 845 817 456
3 75 373 74
3 201 644 456
3 644 551 456
3 201 373 962
3 76 373 75
3 817 373 201
3 637 822 551
3 456 551 996
3 820 739 887
3 962 373 76
3 318 276 889
3 276 741 889
3 414 637 444
3 414 741 304
3 414 304 637
3 889 741 414
3 321 889 396
3 321 365 889
3 444 841 414
3 396 889 414
3 396 414 841
3 427 321 396
3 637 818 444
3 889 365 318
3 688 818 644
3 818 637 551
3 715 962 229
3 715 644 201
3 201 962 715
3 688 644 715
3 229 955 715
3 955 688 715
3 77 78 229
3 962 77 229
3 688 228 818
3 962 76 77
3 444 818 228
3 644 818 551
3 321 388 356
3 276 763 408
3 672 891 330
3 229 78 523
3 888 949 519
3 888 786 949
3 949 786 308
3 949 465 764
3 778 465 308
3 465 949 308
3 653 184 819
3 653 308 786
3 184 653 786
3 956 308 653
3 708 184 786
3 465 199 181
3 792 346 255
3 708 346 184
3 272 388 266
3 272 255 356
3 388 272 356
3 792 255 272
3 819 792 242
3 819 184 792
3 819 242 783
3 242 792 272
3 272 266 242
3 819 453 653
3 266 552 757
3 792 184 346
3 255 346 982
3 800 242 266
3 96 199 778
3 778 199 465
3 956 453 94
3 956 778 308
3 453 956 653
3 95 778 956
3 96 97 199
3 94 95 956
3 96 778 95
3 453 93 94
3 455 199 97
3 92 93 783
3 783 93 453
3 91 783 800
3 783 242 800
3 819 783 453
3 90 800 757
3 91 92 783
3 89 90 757
3 91 800 90
3 89 757 337
3 266 757 800
3 552 266 388
3 949 764 519
3 427 396 243
3 388 321 427
3 617 878 207
3 228 878 841
3 841 243 396
3 243 841 878
3 243 244 427
3 427 244 552
3 588 992 617
3 992 243 878
3 878 617 992
3 992 244 243
3 878 228 207
3 427 552 388
3 950 207 955
3 207 228 688
3 950 955 523
3 523 955 229
3 78 79 523
3 740 523 79
3 179 380 950
3 950 380 207
3 179 950 740
3 740 950 523
3 79 80 740
3 755 740 80
3 207 380 617
3 688 955 207
3 380 504 617
3 337 244 665
3 244 337 552
3 337 665 87
3 665 244 992
3 588 665 992
3 86 665 588
3 87 88 337
3 85 86 588
3 87 665 86
3 588 504 85
3 88 89 337
3 84 504 179
3 588 617 504
3 83 179 755
3 755 179 740
3 380 179 504
3 82 755 81
3 83 84 179
3 2 82 81
3 83 755 82
3 504 84 85
3 81 755 80
3 337 757 552
3 228 841 444
3 443 425 627
3 74 373 226
3 187 610 270
POINT_DATA 15
SCALARS P float 1
LOOKUP_TABLE default
4.328927
4.168357
0.356831
-18.662298
5.305967
11.262571
12.244954
8.449535
-8.528258
-10.282106
-9.593252
8.375297
2.313192
1.840515
3.719705
