# vtk DataFile Version 2.0
cantilever_tri6_mix
ASCII
DATASET POLYDATA
POINTS 273 float
0.000000 -6.000000 0.000000
48.000000 -6.000000 0.000000
48.000000 6.000000 0.000000
0.000000 6.000000 0.000000
1.500000 -6.000000 0.000000
3.000000 -6.000000 0.000000
4.500000 -6.000000 0.000000
6.000000 -6.000000 0.000000
7.500000 -6.000000 0.000000
9.000000 -6.000000 0.000000
10.500000 -6.000000 0.000000
12.000000 -6.000000 0.000000
13.500000 -6.000000 0.000000
15.000000 -6.000000 0.000000
16.500000 -6.000000 0.000000
18.000000 -6.000000 0.000000
19.500000 -6.000000 0.000000
21.000000 -6.000000 0.000000
22.500000 -6.000000 0.000000
24.000000 -6.000000 0.000000
25.500000 -6.000000 0.000000
27.000000 -6.000000 0.000000
28.500000 -6.000000 0.000000
30.000000 -6.000000 0.000000
31.500000 -6.000000 0.000000
33.000000 -6.000000 0.000000
34.500000 -6.000000 0.000000
36.000000 -6.000000 0.000000
37.500000 -6.000000 0.000000
39.000000 -6.000000 0.000000
40.500000 -6.000000 0.000000
42.000000 -6.000000 0.000000
43.500000 -6.000000 0.000000
45.000000 -6.000000 0.000000
46.500000 -6.000000 0.000000
48.000000 -4.500000 0.000000
48.000000 -3.000000 0.000000
48.000000 -1.500000 0.000000
48.000000 -0.000000 0.000000
48.000000 1.500000 0.000000
48.000000 3.000000 0.000000
48.000000 4.500000 0.000000
46.500000 6.000000 0.000000
45.000000 6.000000 0.000000
43.500000 6.000000 0.000000
42.000000 6.000000 0.000000
40.500000 6.000000 0.000000
39.000000 6.000000 0.000000
37.500000 6.000000 0.000000
36.000000 6.000000 0.000000
34.500000 6.000000 0.000000
33.000000 6.000000 0.000000
31.500000 6.000000 0.000000
30.000000 6.000000 0.000000
28.500000 6.000000 0.000000
27.000000 6.000000 0.000000
25.500000 6.000000 0.000000
24.000000 6.000000 0.000000
22.500000 6.000000 0.000000
21.000000 6.000000 0.000000
19.500000 6.000000 0.000000
18.000000 6.000000 0.000000
16.500000 6.000000 0.000000
15.000000 6.000000 0.000000
13.500000 6.000000 0.000000
12.000000 6.000000 0.000000
10.500000 6.000000 0.000000
9.000000 6.000000 0.000000
7.500000 6.000000 0.000000
6.000000 6.000000 0.000000
4.500000 6.000000 0.000000
3.000000 6.000000 0.000000
1.500000 6.000000 0.000000
0.000000 4.500000 0.000000
0.000000 3.000000 0.000000
0.000000 1.500000 0.000000
0.000000 0.000000 0.000000
0.000000 -1.500000 0.000000
0.000000 -3.000000 0.000000
0.000000 -4.500000 0.000000
37.800871 -3.018868 0.000000
33.342920 1.499560 0.000000
40.115281 1.414757 0.000000
13.170193 2.956681 0.000000
11.606048 -4.487211 0.000000
25.690558 -2.917858 0.000000
21.529901 -4.457703 0.000000
5.325972 4.485263 0.000000
39.158636 2.927406 0.000000
40.788546 2.932833 0.000000
20.067639 3.016104 0.000000
42.030932 -1.550747 0.000000
35.829685 2.959506 0.000000
43.692875 -1.491836 0.000000
9.554937 0.085938 0.000000
7.838901 0.084981 0.000000
39.900603 4.455168 0.000000
11.299669 0.056929 0.000000
14.919832 -1.613584 0.000000
18.344720 2.972684 0.000000
35.249012 -4.464036 0.000000
32.675589 -2.994303 0.000000
6.204698 3.021819 0.000000
37.672930 -0.056132 0.000000
34.969997 4.471094 0.000000
12.259830 1.498248 0.000000
12.334263 4.471608 0.000000
41.513253 4.469547 0.000000
3.449148 -4.461276 0.000000
14.097137 -3.079930 0.000000
46.490728 4.355093 0.000000
41.301460 -3.049871 0.000000
31.789774 -1.510228 0.000000
21.304334 -1.440519 0.000000
8.764902 1.564416 0.000000
44.117073 -4.493841 0.000000
41.098064 -0.072804 0.000000
25.873235 1.967863 0.000000
1.301794 3.054266 0.000000
14.898527 -0.074223 0.000000
12.499626 -3.002077 0.000000
15.775526 1.423326 0.000000
34.135935 2.985000 0.000000
23.982201 -2.908033 0.000000
23.189161 -4.438200 0.000000
42.386957 2.957198 0.000000
25.213594 3.234244 0.000000
22.665141 1.588764 0.000000
8.570056 -1.407459 0.000000
46.391900 0.735140 0.000000
1.308581 0.056380 0.000000
1.773505 1.557270 0.000000
7.054736 4.494128 0.000000
38.605546 -1.554160 0.000000
37.503238 2.937308 0.000000
22.641076 4.543469 0.000000
28.275571 1.431805 0.000000
20.255936 0.047297 0.000000
40.324272 -1.567235 0.000000
3.583535 4.490523 0.000000
18.956353 -2.983112 0.000000
32.423320 3.004831 0.000000
26.810550 -1.846013 0.000000
28.383579 -4.564283 0.000000
27.697085 -0.296197 0.000000
41.798858 1.430002 0.000000
22.282978 -2.933975 0.000000
26.561803 -4.464627 0.000000
39.381862 -0.076198 0.000000
34.370965 -2.982974 0.000000
3.565317 1.537913 0.000000
10.894975 -2.949998 0.000000
9.277992 -2.927479 0.000000
36.635244 4.457484 0.000000
16.721839 -0.028897 0.000000
8.386538 -4.452281 0.000000
17.974132 -1.491068 0.000000
35.043294 1.476440 0.000000
4.496727 3.015668 0.000000
19.273567 1.509431 0.000000
24.416169 4.575679 0.000000
43.927572 3.029433 0.000000
14.897520 2.926724 0.000000
29.288954 -3.100693 0.000000
10.505966 1.545565 0.000000
19.156295 4.481818 0.000000
1.815412 4.516373 0.000000
43.074523 -3.022883 0.000000
18.223973 -4.506346 0.000000
6.137492 0.073891 0.000000
25.176293 0.427479 0.000000
17.445158 4.454050 0.000000
29.952265 1.489704 0.000000
1.737647 -4.481904 0.000000
39.542364 -3.044258 0.000000
13.077715 0.000557 0.000000
4.371294 -2.934969 0.000000
34.264154 -0.006089 0.000000
11.862087 -1.452347 0.000000
27.185522 2.874171 0.000000
20.891560 4.511981 0.000000
24.278206 1.732945 0.000000
46.490384 -2.636490 0.000000
31.519711 4.494531 0.000000
40.470210 -4.511737 0.000000
18.507758 0.015303 0.000000
43.131933 4.498888 0.000000
5.307017 1.547613 0.000000
23.494176 3.132131 0.000000
7.034612 1.558344 0.000000
45.215133 -1.523955 0.000000
23.641074 0.097615 0.000000
42.287853 -4.497520 0.000000
15.750473 4.433957 0.000000
36.888006 -1.526749 0.000000
46.520116 -0.843628 0.000000
13.433797 -1.518132 0.000000
9.677896 3.032686 0.000000
10.577443 4.497410 0.000000
5.211261 -1.424859 0.000000
1.287260 -2.980753 0.000000
9.995765 -4.463334 0.000000
24.864790 -4.433769 0.000000
30.695445 3.004204 0.000000
38.275838 4.444812 0.000000
16.564882 -4.543055 0.000000
16.620548 2.933894 0.000000
28.952761 2.969360 0.000000
14.054094 4.447905 0.000000
33.265342 4.487005 0.000000
38.430653 1.425387 0.000000
45.055499 1.658768 0.000000
30.895276 -0.013687 0.000000
38.686543 -4.499511 0.000000
26.275284 4.426294 0.000000
30.115859 -1.552790 0.000000
36.079147 -2.992741 0.000000
4.454040 0.064388 0.000000
20.987528 1.548738 0.000000
33.476969 -1.495772 0.000000
6.897083 -1.414263 0.000000
45.410639 3.207828 0.000000
21.964682 0.065558 0.000000
23.012684 -1.424420 0.000000
8.806631 4.503952 0.000000
5.122411 -4.454988 0.000000
30.148866 -4.529628 0.000000
2.811981 0.063026 0.000000
2.838287 3.018229 0.000000
28.466084 -1.678119 0.000000
44.808126 -3.051644 0.000000
13.232949 -4.528111 0.000000
24.753340 -1.378154 0.000000
36.739973 1.448257 0.000000
29.753246 4.478151 0.000000
15.716577 -3.092910 0.000000
42.838188 -0.037908 0.000000
17.327705 -3.031696 0.000000
6.006899 -2.927565 0.000000
46.621516 2.419482 0.000000
33.560607 -4.475647 0.000000
35.966152 -0.028871 0.000000
43.463504 1.460179 0.000000
10.228944 -1.415379 0.000000
46.090917 -4.354366 0.000000
14.022992 1.437029 0.000000
44.760898 4.599598 0.000000
7.934124 3.034064 0.000000
21.784905 3.058382 0.000000
29.244863 -0.056178 0.000000
32.571705 0.001759 0.000000
2.773358 -2.940478 0.000000
30.982875 -3.027528 0.000000
27.562623 -3.173533 0.000000
26.139669 -0.627788 0.000000
31.867591 -4.493823 0.000000
36.951230 -4.480895 0.000000
19.876950 -4.478171 0.000000
27.997291 4.432275 0.000000
11.426849 3.003425 0.000000
35.177043 -1.503846 0.000000
16.402101 -1.545292 0.000000
44.677476 0.036160 0.000000
1.737920 -1.450347 0.000000
3.499199 -1.424977 0.000000
6.763824 -4.443243 0.000000
7.647975 -2.922360 0.000000
14.892715 -4.554922 0.000000
26.814966 0.946958 0.000000
19.620995 -1.456410 0.000000
31.643925 1.506925 0.000000
17.533161 1.463734 0.000000
20.607797 -2.954491 0.000000
POLYGONS 464 1856
3 0 4 79
3 5 6 108
3 4 5 173
3 200 79 173
3 79 4 173
3 176 108 225
3 108 173 5
3 225 108 6
3 251 173 108
3 6 7 225
3 7 8 265
3 9 10 201
3 8 9 155
3 265 155 266
3 265 8 155
3 10 84 201
3 201 155 9
3 120 151 84
3 201 84 151
3 84 10 11
3 155 201 152
3 7 265 225
3 238 225 265
3 77 78 200
3 108 176 251
3 251 176 264
3 251 200 173
3 78 79 200
3 263 200 251
3 130 76 77
3 130 77 263
3 263 77 200
3 251 264 263
3 264 227 263
3 176 199 264
3 238 266 220
3 238 265 266
3 152 151 243
3 152 266 155
3 225 238 176
3 266 152 128
3 217 264 199
3 199 238 220
3 152 243 128
3 128 220 266
3 243 94 128
3 128 95 220
3 243 151 178
3 220 169 199
3 178 151 120
3 238 199 176
3 201 151 152
3 178 97 243
3 84 11 231
3 12 267 231
3 267 12 13
3 267 13 205
3 205 13 14
3 231 109 120
3 231 267 109
3 235 205 237
3 109 267 235
3 267 205 235
3 98 109 235
3 14 15 205
3 231 120 84
3 15 16 168
3 17 18 86
3 16 17 257
3 140 237 168
3 237 205 168
3 16 257 168
3 17 86 257
3 272 257 86
3 140 168 257
3 18 124 86
3 146 86 124
3 124 202 123
3 168 205 15
3 261 235 237
3 196 175 178
3 120 109 196
3 196 98 119
3 261 98 235
3 237 156 261
3 119 98 261
3 245 175 119
3 175 196 119
3 154 156 185
3 154 119 261
3 156 154 261
3 154 121 119
3 196 109 98
3 196 178 120
3 140 272 269
3 140 257 272
3 272 146 113
3 123 146 124
3 86 146 272
3 223 146 123
3 185 269 137
3 185 156 269
3 222 137 113
3 113 137 269
3 113 269 272
3 222 113 223
3 146 223 113
3 271 154 185
3 223 232 191
3 269 156 140
3 156 237 140
3 97 178 175
3 124 18 19
3 231 11 12
3 137 159 185
3 131 75 130
3 130 75 76
3 131 130 227
3 227 130 263
3 217 227 264
3 150 227 217
3 131 118 75
3 75 118 74
3 158 228 150
3 150 228 131
3 131 227 150
3 118 131 228
3 150 217 187
3 189 169 95
3 95 128 94
3 95 94 114
3 164 94 97
3 95 169 220
3 164 114 94
3 158 187 102
3 187 158 150
3 247 102 189
3 189 102 187
3 189 187 169
3 114 247 189
3 95 114 189
3 228 158 139
3 114 164 197
3 169 187 217
3 217 199 169
3 87 158 102
3 73 118 166
3 118 73 74
3 166 139 71
3 166 118 228
3 139 166 228
3 73 166 72
3 72 3 73
3 70 71 139
3 72 166 71
3 139 87 70
3 87 132 69
3 87 102 132
3 132 247 224
3 197 247 114
3 158 87 139
3 224 247 197
3 69 132 68
3 67 198 66
3 224 198 67
3 224 67 68
3 132 224 68
3 198 224 197
3 87 69 70
3 247 132 102
3 197 164 259
3 105 259 164
3 97 175 105
3 105 245 83
3 105 175 245
3 121 245 119
3 162 245 121
3 83 106 259
3 83 259 105
3 83 162 208
3 206 162 121
3 83 245 162
3 162 206 193
3 121 271 206
3 259 198 197
3 271 159 99
3 271 185 159
3 137 218 159
3 191 222 223
3 121 154 271
3 127 222 191
3 99 171 206
3 99 159 90
3 218 127 248
3 127 218 222
3 188 248 127
3 218 248 90
3 159 218 90
3 165 99 90
3 188 127 181
3 271 99 206
3 137 222 218
3 180 90 248
3 65 198 106
3 198 259 106
3 106 208 64
3 208 162 193
3 83 208 106
3 193 63 208
3 64 65 106
3 62 63 193
3 64 208 63
3 193 171 62
3 198 65 66
3 61 171 165
3 171 99 165
3 248 135 180
3 180 165 90
3 193 206 171
3 60 165 180
3 61 165 60
3 180 58 59
3 59 60 180
3 57 58 135
3 58 180 135
3 135 188 160
3 171 61 62
3 248 188 135
3 181 127 191
3 164 97 105
3 243 97 94
3 232 223 123
3 19 20 202
3 21 22 143
3 20 21 147
3 85 202 147
3 202 20 147
3 163 253 143
3 143 253 147
3 21 143 147
3 85 147 253
3 22 23 143
3 85 123 202
3 23 24 226
3 25 26 240
3 24 25 255
3 163 143 226
3 226 24 255
3 26 100 240
3 240 255 25
3 216 100 256
3 101 255 240
3 100 26 27
3 252 226 255
3 23 226 143
3 149 240 100
3 85 142 232
3 85 253 142
3 249 229 215
3 229 142 253
3 163 229 253
3 142 229 144
3 232 254 170
3 232 142 254
3 144 249 136
3 254 142 144
3 229 249 144
3 254 144 268
3 229 163 215
3 232 123 85
3 252 101 112
3 163 226 252
3 149 216 260
3 255 101 252
3 149 101 240
3 101 149 219
3 212 215 112
3 215 252 112
3 177 219 260
3 112 101 219
3 194 241 260
3 112 219 250
3 149 260 219
3 215 212 249
3 260 216 194
3 252 215 163
3 100 216 149
3 260 241 177
3 100 27 256
3 170 191 232
3 28 29 213
3 30 31 184
3 29 30 184
3 80 256 213
3 213 256 28
3 213 184 174
3 192 111 184
3 213 29 184
3 111 174 184
3 184 31 192
3 28 256 27
3 32 33 115
3 34 1 35
3 33 34 244
3 167 192 115
3 192 32 115
3 182 230 244
3 244 230 115
3 244 115 33
3 36 244 35
3 35 244 34
3 111 192 167
3 32 192 31
3 230 167 115
3 80 133 194
3 133 80 174
3 174 138 133
3 174 111 138
3 80 213 174
3 133 138 148
3 194 103 241
3 194 133 103
3 210 103 148
3 103 133 148
3 138 116 148
3 116 82 148
3 138 91 116
3 194 216 80
3 93 91 167
3 138 111 91
3 230 190 93
3 190 230 182
3 111 167 91
3 37 182 36
3 262 236 93
3 93 236 91
3 182 195 190
3 195 182 37
3 195 37 38
3 262 93 190
3 167 230 93
3 262 190 195
3 91 236 116
3 36 182 244
3 241 103 233
3 80 216 256
3 116 236 145
3 117 170 268
3 136 268 144
3 136 172 207
3 172 136 249
3 170 254 268
3 179 268 136
3 126 181 117
3 117 181 170
3 179 207 258
3 179 117 268
3 136 207 179
3 126 117 179
3 172 203 207
3 181 191 170
3 270 212 250
3 212 112 250
3 250 177 81
3 92 157 233
3 177 250 219
3 157 81 177
3 141 203 270
3 203 172 270
3 157 122 81
3 122 157 92
3 122 92 104
3 270 81 141
3 270 250 81
3 122 141 81
3 177 241 157
3 270 172 212
3 172 249 212
3 207 203 234
3 160 126 214
3 160 188 126
3 160 214 56
3 214 126 179
3 258 214 179
3 55 214 258
3 56 57 160
3 54 55 258
3 56 214 55
3 258 234 54
3 57 135 160
3 234 203 183
3 234 258 207
3 209 104 50
3 209 141 122
3 122 104 209
3 183 141 209
3 52 53 183
3 209 51 183
3 51 209 50
3 183 51 52
3 53 234 183
3 50 104 49
3 234 53 54
3 183 203 141
3 104 92 153
3 181 126 188
3 134 233 210
3 241 233 157
3 210 82 88
3 82 116 145
3 210 233 103
3 145 89 82
3 88 204 134
3 88 134 210
3 96 88 89
3 125 89 145
3 88 82 89
3 89 125 107
3 145 242 125
3 134 153 92
3 211 242 262
3 242 145 236
3 129 38 39
3 129 262 195
3 242 236 262
3 211 262 129
3 221 161 211
3 211 161 242
3 239 39 40
3 239 211 129
3 221 211 239
3 129 39 239
3 110 239 40
3 242 161 125
3 210 148 82
3 125 161 186
3 48 153 204
3 153 134 204
3 47 204 96
3 96 89 107
3 88 96 204
3 46 96 107
3 48 49 153
3 46 47 96
3 45 46 107
3 48 204 47
3 107 186 45
3 49 104 153
3 186 161 246
3 186 107 125
3 246 221 110
3 110 221 239
3 40 41 110
3 42 110 41
3 44 246 43
3 246 44 186
3 43 246 110
3 43 110 42
3 41 2 42
3 186 44 45
3 221 246 161
3 92 233 134
3 129 195 38
3 19 202 124
POINT_DATA 273
SCALARS P float 1
LOOKUP_TABLE default
1102.980429
-4.386387
4.383740
-1178.703052
779.546936
995.404851
896.896595
885.192426
849.621106
818.625003
787.299831
755.748251
724.318942
692.834231
661.371194
629.893018
598.407909
566.917820
535.414308
503.893206
472.368391
440.893951
409.302507
377.938867
346.435495
314.962829
283.447499
251.916590
220.421177
188.912530
157.504311
125.967908
94.927158
62.543820
35.213675
-4.780868
-0.267480
0.074422
-0.436810
1.920257
-0.257114
4.147842
-35.583676
-62.772748
-94.913817
-125.915187
-157.504309
-188.955067
-220.484280
-251.991526
-283.486925
-314.972957
-346.462796
-377.935513
-409.395473
-440.905837
-472.462337
-504.044566
-535.405088
-566.918390
-598.370037
-629.851538
-661.365795
-692.918069
-724.404711
-756.105039
-787.402984
-819.452884
-851.293650
-885.564498
-899.324870
-1015.258394
-737.433219
-759.182818
-499.525856
-248.833879
5.605791
284.743771
511.335148
827.487677
107.755145
-76.906640
-39.032319
-360.396267
571.456056
227.830859
412.926852
-681.864763
-90.568923
-74.002462
-294.813186
32.400678
-126.029470
22.333248
-11.711066
-11.661461
-126.249284
-7.237267
186.729562
-308.502516
199.219420
160.562848
-437.289928
2.048335
-203.869629
-187.339255
-558.137146
-101.495437
672.523122
365.365965
-21.546087
71.552567
85.666654
134.587513
-214.150976
61.397126
1.772971
-152.354478
-483.903880
8.614411
372.848749
-160.492240
-144.817473
244.427029
385.355765
-58.108385
-257.934139
-140.850870
194.161337
-4.525897
-13.017693
-259.705153
-640.359459
51.102328
-107.881911
-403.184652
-98.809031
-4.550741
42.111930
-662.553477
303.188504
-163.776740
136.892870
313.355765
21.055602
-30.978342
264.040783
334.919359
2.307217
142.269930
-234.066129
383.084813
396.143710
-177.246421
3.173557
617.948330
156.689957
-66.925096
-462.019998
-151.730818
-377.608260
-42.982747
-339.042273
203.013881
-203.013574
-452.354889
-756.398390
52.071155
469.565853
-10.136116
-34.114990
-476.230711
-94.054189
721.807678
90.104296
-0.169485
445.120109
0.303377
183.524497
-209.308562
-427.983107
-143.898539
12.519841
-259.169866
118.966141
-1.567937
-76.622040
-229.894493
-268.619640
-223.757611
14.790746
-8.323572
89.902575
-500.362551
59.393672
4.178484
183.635143
-406.160885
-589.034710
214.681238
467.904049
593.199857
358.970281
-181.888728
-151.231168
499.753592
-322.178255
-197.933672
-528.408655
-231.363597
-47.706670
-16.877385
0.833231
146.641544
-336.427436
97.187916
124.858811
-10.411292
-146.378942
76.022348
202.897480
-29.017537
-5.956198
124.575864
-618.645905
675.326377
282.966160
-4.713422
-474.494673
114.659374
33.889866
550.865052
112.145399
-57.027168
-285.905091
349.425342
0.709509
325.411703
428.570979
-10.645002
226.162937
1.242940
-23.155508
187.068162
29.200425
-170.899471
-52.367844
-427.039711
-280.559200
3.685846
-0.094848
474.854644
180.271651
226.950811
47.960422
253.707606
173.254865
440.725327
-310.242983
-384.554471
67.512945
170.843705
-0.357262
235.099813
220.371350
637.409494
413.088419
527.706012
-70.283348
144.668444
-86.234182
-156.077623
283.200634
