# vtk DataFile Version 2.0
patchtest_tri3_mix
ASCII
DATASET POLYDATA
POINTS 34 float
0.000000 -0.500000 0.000000
1.000000 -0.500000 0.000000
1.000000 0.500000 0.000000
0.000000 0.500000 0.000000
0.200000 -0.500000 0.000000
0.400000 -0.500000 0.000000
0.600000 -0.500000 0.000000
0.800000 -0.500000 0.000000
1.000000 -0.300000 0.000000
1.000000 -0.100000 0.000000
1.000000 0.100000 0.000000
1.000000 0.300000 0.000000
0.800000 0.500000 0.000000
0.600000 0.500000 0.000000
0.400000 0.500000 0.000000
0.200000 0.500000 0.000000
0.000000 0.300000 0.000000
0.000000 0.100000 0.000000
0.000000 -0.100000 0.000000
0.000000 -0.300000 0.000000
0.440506 -0.108167 0.000000
0.395447 0.100375 0.000000
0.806643 -0.254716 0.000000
0.569535 0.298985 0.000000
0.600108 -0.282532 0.000000
0.396408 -0.313880 0.000000
0.803554 0.010140 0.000000
0.192533 0.142022 0.000000
0.216735 -0.060498 0.000000
0.785391 0.257667 0.000000
0.370176 0.302426 0.000000
0.200942 -0.271983 0.000000
0.604222 0.086897 0.000000
0.180832 0.328644 0.000000
POLYGONS 46 184
3 0 4 19
3 31 18 19
3 19 4 31
3 25 20 31
3 25 31 4
3 31 28 18
3 20 28 31
3 28 20 21
3 25 4 5
3 18 28 17
3 33 16 27
3 3 33 15
3 33 3 16
3 16 17 27
3 27 21 30
3 27 17 28
3 15 30 14
3 15 33 30
3 23 14 30
3 23 30 21
3 30 33 27
3 28 21 27
3 6 25 5
3 6 7 24
3 24 32 20
3 20 25 24
3 24 7 22
3 24 25 6
3 8 22 7
3 26 24 22
3 9 22 8
3 8 7 1
3 26 22 9
3 32 29 23
3 29 32 26
3 13 14 23
3 13 23 29
3 29 12 13
3 23 21 32
3 10 11 29
3 10 26 9
3 12 11 2
3 12 29 11
3 29 26 10
3 32 24 26
3 21 20 32
POINT_DATA 34
SCALARS P float 1
LOOKUP_TABLE default
5438.396400
345.314475
-612.993344
-5980.838345
1804.281703
5364.842954
899.716615
257.298656
-947.505465
943.690261
-1418.436341
1307.265560
101.029302
-1468.257774
-4156.351611
-5529.461693
10102.774445
-12001.696564
11881.686778
-9773.873431
10325.944238
-10422.282669
174.739221
3463.460643
-1882.755151
-9608.434132
1040.795519
-10067.074891
8315.505371
-581.271659
8620.750391
-3685.424473
-2482.566282
9955.331618
