# vtk DataFile Version 2.0
cantilever_quad4_mix
ASCII
DATASET POLYDATA
POINTS 4100 float
0.000000 -6.000000 0.000000
48.000000 -6.000000 0.000000
48.000000 6.000000 0.000000
0.000000 6.000000 0.000000
0.375000 -6.000000 0.000000
0.750000 -6.000000 0.000000
1.125000 -6.000000 0.000000
1.500000 -6.000000 0.000000
1.875000 -6.000000 0.000000
2.250000 -6.000000 0.000000
2.625000 -6.000000 0.000000
3.000000 -6.000000 0.000000
3.375000 -6.000000 0.000000
3.750000 -6.000000 0.000000
4.125000 -6.000000 0.000000
4.500000 -6.000000 0.000000
4.875000 -6.000000 0.000000
5.250000 -6.000000 0.000000
5.625000 -6.000000 0.000000
6.000000 -6.000000 0.000000
6.375000 -6.000000 0.000000
6.750000 -6.000000 0.000000
7.125000 -6.000000 0.000000
7.500000 -6.000000 0.000000
7.875000 -6.000000 0.000000
8.250000 -6.000000 0.000000
8.625000 -6.000000 0.000000
9.000000 -6.000000 0.000000
9.375000 -6.000000 0.000000
9.750000 -6.000000 0.000000
10.125000 -6.000000 0.000000
10.500000 -6.000000 0.000000
10.875000 -6.000000 0.000000
11.250000 -6.000000 0.000000
11.625000 -6.000000 0.000000
12.000000 -6.000000 0.000000
12.375000 -6.000000 0.000000
12.750000 -6.000000 0.000000
13.125000 -6.000000 0.000000
13.500000 -6.000000 0.000000
13.875000 -6.000000 0.000000
14.250000 -6.000000 0.000000
14.625000 -6.000000 0.000000
15.000000 -6.000000 0.000000
15.375000 -6.000000 0.000000
15.750000 -6.000000 0.000000
16.125000 -6.000000 0.000000
16.500000 -6.000000 0.000000
16.875000 -6.000000 0.000000
17.250000 -6.000000 0.000000
17.625000 -6.000000 0.000000
18.000000 -6.000000 0.000000
18.375000 -6.000000 0.000000
18.750000 -6.000000 0.000000
19.125000 -6.000000 0.000000
19.500000 -6.000000 0.000000
19.875000 -6.000000 0.000000
20.250000 -6.000000 0.000000
20.625000 -6.000000 0.000000
21.000000 -6.000000 0.000000
21.375000 -6.000000 0.000000
21.750000 -6.000000 0.000000
22.125000 -6.000000 0.000000
22.500000 -6.000000 0.000000
22.875000 -6.000000 0.000000
23.250000 -6.000000 0.000000
23.625000 -6.000000 0.000000
24.000000 -6.000000 0.000000
24.375000 -6.000000 0.000000
24.750000 -6.000000 0.000000
25.125000 -6.000000 0.000000
25.500000 -6.000000 0.000000
25.875000 -6.000000 0.000000
26.250000 -6.000000 0.000000
26.625000 -6.000000 0.000000
27.000000 -6.000000 0.000000
27.375000 -6.000000 0.000000
27.750000 -6.000000 0.000000
28.125000 -6.000000 0.000000
28.500000 -6.000000 0.000000
28.875000 -6.000000 0.000000
29.250000 -6.000000 0.000000
29.625000 -6.000000 0.000000
30.000000 -6.000000 0.000000
30.375000 -6.000000 0.000000
30.750000 -6.000000 0.000000
31.125000 -6.000000 0.000000
31.500000 -6.000000 0.000000
31.875000 -6.000000 0.000000
32.250000 -6.000000 0.000000
32.625000 -6.000000 0.000000
33.000000 -6.000000 0.000000
33.375000 -6.000000 0.000000
33.750000 -6.000000 0.000000
34.125000 -6.000000 0.000000
34.500000 -6.000000 0.000000
34.875000 -6.000000 0.000000
35.250000 -6.000000 0.000000
35.625000 -6.000000 0.000000
36.000000 -6.000000 0.000000
36.375000 -6.000000 0.000000
36.750000 -6.000000 0.000000
37.125000 -6.000000 0.000000
37.500000 -6.000000 0.000000
37.875000 -6.000000 0.000000
38.250000 -6.000000 0.000000
38.625000 -6.000000 0.000000
39.000000 -6.000000 0.000000
39.375000 -6.000000 0.000000
39.750000 -6.000000 0.000000
40.125000 -6.000000 0.000000
40.500000 -6.000000 0.000000
40.875000 -6.000000 0.000000
41.250000 -6.000000 0.000000
41.625000 -6.000000 0.000000
42.000000 -6.000000 0.000000
42.375000 -6.000000 0.000000
42.750000 -6.000000 0.000000
43.125000 -6.000000 0.000000
43.500000 -6.000000 0.000000
43.875000 -6.000000 0.000000
44.250000 -6.000000 0.000000
44.625000 -6.000000 0.000000
45.000000 -6.000000 0.000000
45.375000 -6.000000 0.000000
45.750000 -6.000000 0.000000
46.125000 -6.000000 0.000000
46.500000 -6.000000 0.000000
46.875000 -6.000000 0.000000
47.250000 -6.000000 0.000000
47.625000 -6.000000 0.000000
48.000000 -5.625000 0.000000
48.000000 -5.250000 0.000000
48.000000 -4.875000 0.000000
48.000000 -4.500000 0.000000
48.000000 -4.125000 0.000000
48.000000 -3.750000 0.000000
48.000000 -3.375000 0.000000
48.000000 -3.000000 0.000000
48.000000 -2.625000 0.000000
48.000000 -2.250000 0.000000
48.000000 -1.875000 0.000000
48.000000 -1.500000 0.000000
48.000000 -1.125000 0.000000
48.000000 -0.750000 0.000000
48.000000 -0.375000 0.000000
48.000000 -0.000000 0.000000
48.000000 0.375000 0.000000
48.000000 0.750000 0.000000
48.000000 1.125000 0.000000
48.000000 1.500000 0.000000
48.000000 1.875000 0.000000
48.000000 2.250000 0.000000
48.000000 2.625000 0.000000
48.000000 3.000000 0.000000
48.000000 3.375000 0.000000
48.000000 3.750000 0.000000
48.000000 4.125000 0.000000
48.000000 4.500000 0.000000
48.000000 4.875000 0.000000
48.000000 5.250000 0.000000
48.000000 5.625000 0.000000
47.625000 6.000000 0.000000
47.250000 6.000000 0.000000
46.875000 6.000000 0.000000
46.500000 6.000000 0.000000
46.125000 6.000000 0.000000
45.750000 6.000000 0.000000
45.375000 6.000000 0.000000
45.000000 6.000000 0.000000
44.625000 6.000000 0.000000
44.250000 6.000000 0.000000
43.875000 6.000000 0.000000
43.500000 6.000000 0.000000
43.125000 6.000000 0.000000
42.750000 6.000000 0.000000
42.375000 6.000000 0.000000
42.000000 6.000000 0.000000
41.625000 6.000000 0.000000
41.250000 6.000000 0.000000
40.875000 6.000000 0.000000
40.500000 6.000000 0.000000
40.125000 6.000000 0.000000
39.750000 6.000000 0.000000
39.375000 6.000000 0.000000
39.000000 6.000000 0.000000
38.625000 6.000000 0.000000
38.250000 6.000000 0.000000
37.875000 6.000000 0.000000
37.500000 6.000000 0.000000
37.125000 6.000000 0.000000
36.750000 6.000000 0.000000
36.375000 6.000000 0.000000
36.000000 6.000000 0.000000
35.625000 6.000000 0.000000
35.250000 6.000000 0.000000
34.875000 6.000000 0.000000
34.500000 6.000000 0.000000
34.125000 6.000000 0.000000
33.750000 6.000000 0.000000
33.375000 6.000000 0.000000
33.000000 6.000000 0.000000
32.625000 6.000000 0.000000
32.250000 6.000000 0.000000
31.875000 6.000000 0.000000
31.500000 6.000000 0.000000
31.125000 6.000000 0.000000
30.750000 6.000000 0.000000
30.375000 6.000000 0.000000
30.000000 6.000000 0.000000
29.625000 6.000000 0.000000
29.250000 6.000000 0.000000
28.875000 6.000000 0.000000
28.500000 6.000000 0.000000
28.125000 6.000000 0.000000
27.750000 6.000000 0.000000
27.375000 6.000000 0.000000
27.000000 6.000000 0.000000
26.625000 6.000000 0.000000
26.250000 6.000000 0.000000
25.875000 6.000000 0.000000
25.500000 6.000000 0.000000
25.125000 6.000000 0.000000
24.750000 6.000000 0.000000
24.375000 6.000000 0.000000
24.000000 6.000000 0.000000
23.625000 6.000000 0.000000
23.250000 6.000000 0.000000
22.875000 6.000000 0.000000
22.500000 6.000000 0.000000
22.125000 6.000000 0.000000
21.750000 6.000000 0.000000
21.375000 6.000000 0.000000
21.000000 6.000000 0.000000
20.625000 6.000000 0.000000
20.250000 6.000000 0.000000
19.875000 6.000000 0.000000
19.500000 6.000000 0.000000
19.125000 6.000000 0.000000
18.750000 6.000000 0.000000
18.375000 6.000000 0.000000
18.000000 6.000000 0.000000
17.625000 6.000000 0.000000
17.250000 6.000000 0.000000
16.875000 6.000000 0.000000
16.500000 6.000000 0.000000
16.125000 6.000000 0.000000
15.750000 6.000000 0.000000
15.375000 6.000000 0.000000
15.000000 6.000000 0.000000
14.625000 6.000000 0.000000
14.250000 6.000000 0.000000
13.875000 6.000000 0.000000
13.500000 6.000000 0.000000
13.125000 6.000000 0.000000
12.750000 6.000000 0.000000
12.375000 6.000000 0.000000
12.000000 6.000000 0.000000
11.625000 6.000000 0.000000
11.250000 6.000000 0.000000
10.875000 6.000000 0.000000
10.500000 6.000000 0.000000
10.125000 6.000000 0.000000
9.750000 6.000000 0.000000
9.375000 6.000000 0.000000
9.000000 6.000000 0.000000
8.625000 6.000000 0.000000
8.250000 6.000000 0.000000
7.875000 6.000000 0.000000
7.500000 6.000000 0.000000
7.125000 6.000000 0.000000
6.750000 6.000000 0.000000
6.375000 6.000000 0.000000
6.000000 6.000000 0.000000
5.625000 6.000000 0.000000
5.250000 6.000000 0.000000
4.875000 6.000000 0.000000
4.500000 6.000000 0.000000
4.125000 6.000000 0.000000
3.750000 6.000000 0.000000
3.375000 6.000000 0.000000
3.000000 6.000000 0.000000
2.625000 6.000000 0.000000
2.250000 6.000000 0.000000
1.875000 6.000000 0.000000
1.500000 6.000000 0.000000
1.125000 6.000000 0.000000
0.750000 6.000000 0.000000
0.375000 6.000000 0.000000
0.000000 5.625000 0.000000
0.000000 5.250000 0.000000
0.000000 4.875000 0.000000
0.000000 4.500000 0.000000
0.000000 4.125000 0.000000
0.000000 3.750000 0.000000
0.000000 3.375000 0.000000
0.000000 3.000000 0.000000
0.000000 2.625000 0.000000
0.000000 2.250000 0.000000
0.000000 1.875000 0.000000
0.000000 1.500000 0.000000
0.000000 1.125000 0.000000
0.000000 0.750000 0.000000
0.000000 0.375000 0.000000
0.000000 0.000000 0.000000
0.000000 -0.375000 0.000000
0.000000 -0.750000 0.000000
0.000000 -1.125000 0.000000
0.000000 -1.500000 0.000000
0.000000 -1.875000 0.000000
0.000000 -2.250000 0.000000
0.000000 -2.625000 0.000000
0.000000 -3.000000 0.000000
0.000000 -3.375000 0.000000
0.000000 -3.750000 0.000000
0.000000 -4.125000 0.000000
0.000000 -4.500000 0.000000
0.000000 -4.875000 0.000000
0.000000 -5.250000 0.000000
0.000000 -5.625000 0.000000
18.296816 -3.862326 0.000000
5.869449 -0.015359 0.000000
28.326277 -4.905184 0.000000
0.853313 1.909375 0.000000
9.008609 -0.846080 0.000000
47.281729 -4.247145 0.000000
46.914467 -2.245647 0.000000
24.691705 -0.514928 0.000000
36.797837 0.858433 0.000000
3.176629 -4.568576 0.000000
44.753444 -0.027779 0.000000
25.468915 3.102201 0.000000
11.713509 0.495746 0.000000
14.486335 2.202142 0.000000
15.123010 -5.306469 0.000000
33.915058 -4.190785 0.000000
12.137593 -2.135269 0.000000
6.474266 -3.898915 0.000000
40.037257 -5.267307 0.000000
6.063261 -2.756721 0.000000
9.242224 2.092536 0.000000
8.248738 -2.420831 0.000000
29.596135 5.280860 0.000000
41.214749 1.868376 0.000000
34.997004 0.743055 0.000000
14.498973 -1.058109 0.000000
45.083479 -1.955406 0.000000
14.081559 -1.195145 0.000000
28.331971 4.600613 0.000000
34.287482 0.778193 0.000000
[...]
POINT_DATA 4100
SCALARS P float 1
LOOKUP_TABLE default
2001.282335
42.503890
-14.089185
721.046595
-349.079508
-3005.480348
-5598.829727
-9507.548026
-13559.610893
-17293.538306
-20920.668840
-24448.716218
-27273.858383
-29377.577251
-30571.107740
-30915.979222
-31120.157133
-30819.016355
-30315.210673
-29855.357274
-29951.147029
-30574.601960
-31101.028356
-31472.778382
-31204.322757
-30178.329883
-28865.875865
-27442.638727
-25736.434996
-24076.148688
-21924.405494
-19967.150703
-17562.535918
-15491.082038
-13411.984601
-9964.223820
-7569.477010
-4977.130364
-2844.866827
-986.218853
304.989240
798.943361
710.051086
450.643154
188.061351
-155.837136
-576.442077
-964.392900
-1297.699782
-1803.309590
-2405.690022
-3318.552528
-4795.191504
-6757.715330
-8383.793810
-10674.771840
-13120.720163
-15544.446458
-17505.400226
-19479.646148
-21166.653624
-22730.109297
-24110.707857
-25293.428895
-26218.979095
-26177.091857
-25318.128667
-24074.642714
-22749.358319
-21313.569903
-19384.085573
-17834.078733
-15865.528037
-13051.037819
-12353.641605
-8725.011388
-7818.935926
-6343.693029
-5470.049004
-4304.012232
-3268.906588
-2156.049104
-1145.281222
-271.398007
246.952051
282.587582
351.266899
330.305613
296.389529
240.292534
261.437210
169.190556
-1.016298
-150.680953
-174.260899
-215.034606
-326.774846
-413.668626
-414.383073
-468.052959
-502.797439
-407.937763
-290.136313
-364.764696
-615.586092
-870.818107
-1025.435736
-1100.400606
-1009.744059
-801.557002
-616.238903
-481.142876
-724.316000
-1362.981490
-2263.975804
-3229.194294
-4051.040794
-4569.771850
-4861.921647
-5039.176565
-5074.513560
-4964.883713
-4673.255194
-4139.983662
-3550.667730
-2403.125299
-1621.834118
-709.207721
-284.133060
-102.736354
-56.392271
-4.745013
-98.216818
-216.167482
-477.806764
-621.058730
-817.015545
-961.566646
-1069.906974
-1196.183410
-1275.117267
-1272.602182
-1220.790073
-1161.924716
-1104.888644
-1026.184443
-944.993638
-869.927089
-754.783581
-606.101310
-477.660056
-364.543667
-262.288986
-168.202874
-81.771403
-15.802310
2.171194
1.638029
1.489028
11.202935
-9.469123
11.283931
-0.346225
-45.994567
-36.833964
-25.242959
-96.155294
-68.916003
-133.175807
-73.499535
-153.435106
-100.435311
-170.237721
-126.519158
-185.347612
-155.131824
-196.458459
-175.689099
-205.427543
-180.900537
-196.433594
-212.749060
-321.032025
-275.007695
-286.966433
-320.983566
-384.012449
-396.857250
-311.616635
-268.605754
-288.007439
-325.223781
-400.850732
-470.243600
-577.674915
-739.877829
-786.419122
-754.998608
-678.388371
-606.486169
-472.711590
-338.733861
-287.939448
-278.827131
-248.599715
-231.588782
-423.387028
-1162.155139
-2633.369997
-4587.475641
-6733.463104
-8929.780467
-11148.763490
-13319.779391
-15444.330139
-16763.789056
-17681.686720
-18156.344962
-18870.878584
-19080.321559
-19443.717371
-19424.589703
-19284.607199
-18827.154506
-18217.684429
-17257.578293
-15583.269691
-13756.210749
-11603.673696
-9922.568556
-7982.848656
-6505.651911
-5426.708853
-4725.378016
-4434.805007
-4230.030698
-3936.832597
-3259.620354
-2884.696523
-2262.600185
-1927.067630
-1595.287366
-1407.989247
-1192.439654
-1101.840596
-1009.279937
-995.503659
-894.599916
-915.087882
-824.303469
-768.348281
-713.620430
-756.708552
-747.619752
-729.934302
-633.125658
-617.923539
-635.720712
-909.939219
-1812.536723
-3499.189180
-5684.818162
-8008.161701
-10239.461505
-12170.141716
-13728.076528
-15073.474006
-16082.765605
-16935.878257
-17428.042399
-17665.571365
-17658.028735
-17362.766449
-16844.538113
-15604.210493
-14241.270112
-12046.080971
-10658.828505
-8526.426327
-6946.586045
-5733.819770
-4793.157521
-4274.500067
-3985.554125
-3044.045781
-2231.224992
-1675.269913
-259.444273
811.602479
-5454.489638
13485.995620
28883.332694
56076.835069
53573.248016
40328.165522
11653.077769
5322.902514
-6554.173729
462.822635
100849.859568
264369.347009
442137.118074
596756.529605
727001.701326
824309.523794
884232.498745
845322.545008
706595.948234
502156.469617
276986.934440
90991.245459
1333.842627
-15156.136488
-4057.937505
2116.291736
13188.418766
-3544.069770
3500.239405
-1102.351158
1053.775737
-2622.354687
-734.433606
4592.372190
-6846.138822
1195.510240
-417.513481
948.725817
-3.274086
-89.080978
-15880.809908
25.106000
-1746.259156
-117.482443
-221.284439
82.188938
573.181868
415.520540
-2191.743127
-639.838060
879.390952
-233.634038
1825.462376
-9415.740951
-75.608954
-49.195735
-224.322690
-19.090136
-104.649553
-7342.645967
-104.206395
-2916.168329
-83.284820
333.040357
-4393.767747
-8189.939526
-243.402549
529.071086
-32.602280
73.833554
10719.379072
156.181512
-107.568212
-452.185215
-592.838186
-867907.915938
-80.727642
-86.723267
-197.738869
-157.363338
-152.682310
65.180426
-312.758581
-1667.332027
-13652.514751
37.385007
1522.576593
-31.689591
2764.976309
16.894127
-151.805237
-1104.025723
-184.039776
-13133.984106
-15118.589392
19.202512
33.850853
-16140.646991
-14880.452582
339.981199
-670.239815
-9160.333314
53.873753
-3199.900870
-248.550232
-260.106244
-11473.816361
-239.661426
288.534501
-21832.247212
164.109188
-248.224959
11860.738765
19.424074
-9355.821267
265.595940
-5736.087610
38.778284
4779.518308
-995.276105
-130.743865
198.485972
32730.156884
202.885579
-179.794789
-344.230836
21.942579
-151.368747
-411.967521
702.455775
1613.887558
-2938.698937
-81.980501
832.205367
-53.006297
27.012299
-1437.441991
167.667078
-6.130380
-327.289777
446.136389
-620.166187
-1039.386448
-5901.834866
-293.645738
-16721.706675
-46.974118
-258.847215
389.991588
116251.973129
-506.824108
299.471315
139.732781
-83.037864
-770.593099
140.285088
-171.043685
-519.437129
-12169.014723
3304.268139
738.664875
-57.978852
-272.563828
-3582.457601
-261.893308
-761.333618
214.745624
-112.282923
-244.921926
-758.180265
-48.486036
-51.594036
8.856158
-122.365806
1886.825744
81.834981
-598.802829
-1886.245264
860.835559
19307.820254
-68.990536
1487.123950
-230.337656
1760.640639
-148.792364
-252.478341
-276.374100
-142.874507
109.450617
12206.050686
48835.244041
-646.242155
-161.126896
1058.372404
1430.597343
-24.846915
-235.850927
-841455.216515
-9138.202584
-2048.209957
904.952850
-145.176317
18936.053560
-1102.742428
-150.254323
33.563418
-44.213439
-154.073530
21730.363584
-342.504911
76.753239
-53.246803
-63.976874
211.650754
-6693.409288
-2604.047013
-2159.908400
307.813536
3861.886979
-5335.443888
333.730114
69.531476
7913.787832
-204.237565
-213.992228
-368.358478
4632.459300
62.140841
-388.726540
11800.441795
-402.476899
416.262194
229.221138
509.851960
-4432.104017
24.102349
-96.373611
-50.663567
-320.708379
33.197668
338.692146
-21.619499
123.007547
337.553137
-4.943072
-29.297702
43.524963
-208.272651
-232.591041
253.066485
-857.193566
-949.655213
-1179.044423
-282.143394
183.814324
-465.558133
-351.635984
-45.887326
-200.050248
-28.533019
-19594.367956
-1051.846477
-5.232815
0.844085
6384.899663
-205.716927
2410.642617
31898.907003
-270.962538
730.057857
186.639743
20.293054
-8560.729959
263.519570
-55.669329
-273.723263
5982.213623
4065.286978
-44.674252
-185.952691
-803.636562
-30716.538919
-13.477109
4506.159834
-368.388461
2582.352898
11.760945
-73.262875
-48.784513
-2475.076228
8708.107045
-84.658465
547.912244
-22935.004897
18663.379029
-332.107037
-4.444429
57.458425
404.411410
163.681956
-141.747108
43.661559
-401.027237
-976.341978
-22.259573
-11.726286
2403.996268
12.497837
2900.446111
2130.717816
162.619679
-755.681940
93.683114
-50.778319
-94.593326
38512.893666
244.466889
40.296312
-47.857609
-104.296785
103.218521
-295.429774
226.378164
-763.790246
20170.797964
-1739.179493
-4.859844
1319.584057
-207.924710
-230.180017
11322.514463
-4104.161525
132.228067
-20.261362
-7839.985348
-2582.764273
-6.535742
-19.668074
83.813561
200.952397
-67.694089
6.829836
157.253700
44.615263
-4.325142
-423.694817
-133.669775
513.351649
179.778369
166.681351
91.283642
148.079333
357.437395
725.276872
-77.411606
-102.103200
-476.930013
-12576.278429
212571.630231
37.084873
-328.370208
-24331.049699
-346.719487
1625.040286
15990.759895
-753.192894
390.249043
-1.328191
270.201556
-16191.401104
-35.081335
257.515374
-6824.408843
-127.095354
1071.212699
-561.265684
8.163913
-349.291091
998.284107
-38.316817
6472.770862
-159.140201
110.461629
6423.205590
68.258272
399.996920
205.105010
-46.834885
-184.550510
1697.926741
502.326494
1107.676635
239.436188
940.434799
-420.402269
-509.466937
-955.547438
-325.417896
419.259610
53.739853
-262.011309
77.214403
361.072666
545.375895
19756.510252
-192.196587
751.148288
16.684455
4028.994024
-123686.882240
-4.925702
-324.557910
8.599144
475.762325
-2.102319
-558.304740
47.530924
-11359.762192
1067.725831
242.636343
11550.636447
-6.072545
-2482.439276
-666.273531
-28001.220641
-68.165416
-109.564950
-417.991366
206.739946
9529.925039
-51.683390
7944.306334
155.376690
-116.860021
43.685740
6582.845335
28.044304
-7265.955466
6848.872948
14180.803393
707.160148
-481.783336
38.042403
-305.064230
-242.916622
-47.361938
173.842160
-100.672487
-441.210389
2353.097323
-204.250710
1909.369758
-5.425813
-858.898370
-118.887822
537.621346
-173.445183
5849.249625
295.772415
-23.489188
130.263463
-226.060278
-53.897119
-188.433643
-181.353955
-3442.380670
-97.153557
-348.697552
6793.604941
-89.256625
-2016.951589
-67.633312
-955.594610
10.614287
153.707532
-208.669368
17.547442
1840.290447
-303.780476
-195.602359
-110.117695
-7040.417291
-11458.540599
33.921921
508.440791
12.703053
-386.658136
12285.423127
-114.931359
-309865.416214
-79.590780
-206066.965930
-571.866465
-55.548516
147.015093
8.034185
-11.969621
-39.999198
-714.504609
-367.671394
28318.849246
298.640012
-187.748627
503.796288
940.196779
-692.255939
-232.988413
-26.046747
-5.920052
1221.162246
-38.990143
-314.866876
60.654775
17633.287280
113.233186
592533.759161
8405.308286
-84.039812
-366.925723
95.350779
306.575135
5.067468
-5164.779918
149.590391
-111.162315
2083.426528
-78.782094
24.397812
-74725.630969
-141.840742
-19425.061995
-608.316819
-26112.854961
12370.511310
-18391.435280
-237.589688
-225.222914
459.015979
-340.263317
-226.462915
-165.113560
-11015.506139
-4422.572240
343.145636
196.431233
-666.442335
-319.064285
4.509547
366.583054
11464.330635
3984.975793
-126.830064
145.365149
10.437377
0.651989
-44.279523
-34.852615
-2139.003089
815.124355
2777.779473
-73.235178
-35.863634
-82.112935
-241.041778
13.564444
-384.810146
8.303638
26.781080
-432316.658499
124.896967
75.338265
-394.700797
-470.550268
-254.724404
-101.716446
74.609630
-2.714958
-29.380656
-1694.720511
148.211065
-14394.158374
-222.968210
1.354898
318.177776
-22.157788
-196.338864
-232.005592
-390.925669
-990.966174
-277.472867
-37.061829
-133.512635
-91.380506
3570.601606
-90.219507
243.614327
6.824870
-54.212124
-12200.609861
-94.472571
1028.595507
-122.282026
-1532.768726
6163.670253
22553.620152
1418.725204
-171.681061
-149.127058
-38.885230
-1133.938119
1739.731227
-975.256970
711.054641
380.091150
-740.201816
1250.547568
-216.424058
2705.624760
-64.085022
589.916052
70.206189
-345.164937
-2032.021089
763.686591
-841.947173
-64.950465
-450.434906
-617.012418
-43.167778
4366.184798
-87.920553
-24.534582
-5329.195284
58.320349
-139.241177
18162.716473
-19.510534
49.307878
-452.709161
-305.921764
138.356245
318.852582
19.795181
-115.065447
1053.723187
-5197.610153
-35.085913
210.921782
338.550354
-585.098850
2.119017
-15.053986
1788.860650
-36.053005
564.052799
149.186828
128.954433
217.045646
305.745307
7564.766224
-23.984272
-369.240615
1088.599966
-168.286596
-186.938732
2.013321
253.197683
-4.069314
-77.316145
149.421909
40003.293922
345.162374
-72.763400
-144.455480
-1985.525357
-99.372003
-263.720985
-615.704696
18158.303115
9539.890067
9.284689
-3276.562204
715.302331
1089.587741
127.091843
-651.186317
-90.742765
-152.404815
43.371874
-54.128785
-236.320214
-435.141770
-1276.097942
-439.111484
-2526.222792
-183.301240
-359.377610
-59.558847
52.337975
3.745387
333.747157
39.251876
228.450156
-779.686685
-232.311115
565.286216
-615.107733
-2051.703327
105.027436
666.048540
28.461573
-6621.335910
81.284962
-360.425116
-26.755033
27446.219575
-18599.120432
45.792089
43.805345
870.268581
-643.151771
-6393.617001
-2473.270727
-2896.231063
-9911.060693
-4250.717523
236.094676
-52.999916
-91.168469
1903.058633
7954.561885
-1524.788477
-210.359601
-13256.432379
197.687330
-325.948526
-105.917620
860.420670
-37.467214
-175.056141
-424.437263
22058.117629
255.021793
2021.448294
206.547763
-769.146663
39417.993128
24.132421
3078.121854
43.692424
1257.917473
-192.347140
-221.768791
261.354822
-121.294029
52.042634
8178.586550
263.377142
-252.384403
-98.571495
-225.836050
459.484246
39180.190236
-153.408216
659.306102
537.849116
-198.554241
-90.882220
-84.559074
-287.240705
350.190661
11.095917
233.707395
-3711.740859
219.376377
6809.526391
1590.610739
-107.924174
-511.874212
47.335589
-397.353730
125.391309
23.343830
-519.399780
-2177.876525
-1729.554448
-1392.757450
-46.285400
-14.574502
-14.917440
-9.681391
8272.503207
-279.505399
948.133741
-51.752450
-621.216287
-44.095953
-200.419603
-216.833889
540.584829
555.730529
736.800813
-122.158988
9812.545878
1023.307368
1347.775560
-55.153955
1900.249599
78.747207
-5750.316558
3414.730534
-40.074119
7627.574774
-193.527359
-3524.589350
-583.877030
33.407699
-1293.770853
-10999.507507
1581.953394
-365.041747
19548.417491
-111.923085
-255.264907
-532.687843
-223.227829
-25.488236
2129.576194
-119.601348
-59.904097
111.206375
1290.991344
-142.656208
-488.202155
-1750.306153
-9.547514
2933.306849
234.315326
-11.980189
2169.780872
-72.160769
-393.071283
1826.870960
-28458.673262
3225.678308
-185.894326
-13.978990
2797.689401
-790.496607
-64.941634
59.499192
-177.043407
-317.569473
7599.813359
653.433771
67.711749
30.154900
-24.994529
5386.797698
-26.319353
691.336274
-508.834026
-559.952334
-12.758258
-274.921271
-76.595560
-205.096737
379.132749
16175.060843
-45.424273
1589.697131
845.103408
-3773.180306
-132.459529
1042.012262
-32172.103004
451.638428
1249.958644
54.711338
-1443.369840
-1438.462509
41.761168
3000.506442
-267.374421
-603.344615
-157.964833
-127.948402
10344.554442
1005.323118
-948.327641
4151.462200
5293.243556
532.446245
-54.314870
62.094659
-291.272045
149.044790
-4865.679047
2980.596858
-23.988953
1705.036734
-995.293337
2210.497293
-610.959865
-276.229778
44.840761
188.773499
-21.738283
-1.471842
-201.141557
1036.716043
15052.780028
-12428.468349
0.379758
-337.855820
-791.858552
-63.434493
-545.772332
-147.818756
29326.975046
0.576788
-239.016264
149.763360
-219.998417
-51.793570
-527798.699230
613.406627
7697.812494
18930.764734
207.157073
-3398.466337
-170.789026
-791.769087
183.542575
-2311.732317
735.508843
25856.734517
871.887920
-53.507617
552.716004
-63.551102
-24846.296920
-115.134297
-16017.339664
-432.483365
-1923.273463
-276.883419
16.202855
-1333.652457
-6962.400169
-145.929285
-269.965295
-267.932141
-112.110440
-0.539532
38629.863605
176.177080
428.739492
185.352172
-1613.417751
234.934214
21327.633358
-73.702030
122.008922
-683.178273
-132.082656
-30267.087185
853.883976
-537.128722
-2070.032160
490.511450
1964.465061
-170.733921
626.221958
328.967062
-39.970149
-105.413202
100.495689
-333.364911
-279.840361
-4604.231213
6.315925
19023.221632
590.954213
-19.277123
-652.062724
131.558020
-594.834195
81.620835
-328.003907
-9.462719
-680.605679
-5980.041809
-88.366376
-3406.495274
-77.130926
-158.060122
1282.918733
182.132876
2171.724435
-14.390932
12618.167220
-381.246243
-44.324709
266.129463
-59.896856
-326.554489
-386.624218
-79.616245
-386.735672
-1867.595002
850.905945
1512.740125
-149.928848
7706.603602
-115.123488
3049.066598
928.273758
-30.441476
-141.510436
-1166.631691
95.535366
-1353.746099
-146.440597
1572.830593
-488.940683
-1242.519939
-2427.708606
-13.695132
-13.523846
-31.724550
1779.412689
-25.974798
105.513601
-242.339602
617.188884
19559.127919
1993.480703
-85.160454
-817.650971
151.773489
-144.554606
27094.806958
1766.073850
28.316896
27.507352
185.100609
193.112371
117.284475
-39.434089
-355.985905
-9497.955769
-1465.610735
-108.141942
-293.710885
-23.122584
413.389503
730.480556
151.381845
-185.369202
-564.269764
-24.369356
80.987463
-222.733178
-8902.693990
-48.678994
144.604666
27.199095
360.470222
-5902.857509
848.881190
-13.784255
10886.259270
724.799528
128.356620
-290.180913
-250.913180
219.324573
-6520.551244
-308.973835
-68.423985
-630.861505
278.111331
-239.322460
-5702.510693
371.318025
-586.840857
-12.279805
-199.201518
32.868372
-329899.613292
6485.824876
-1825.146482
5.192568
3509.636429
159.813759
18.061567
-268.633807
-5672.106590
22345.392779
-370.123682
133.817242
25.839069
-39.029403
23.874159
-819.261245
995.415173
-713.858522
-289.396392
-1178.401291
7731.436273
1068.828846
82.863694
-457.483223
1019.268828
917.006437
436.232156
-240.975074
13098.241016
369.060684
8315.136766
-617.804587
-601.682501
-90105.189722
3265.601983
-1994.387043
-27.805172
302.891458
-43.145010
-41.563299
-23686.740046
-4612.794728
-2356.115777
-299.703727
173.598165
581.256335
-50.424833
-494.920278
-159.233617
27.946061
473.367032
4.045127
-5740.153029
36141.470276
-20.476229
-13589.042383
-553.233438
5.253053
-155.960352
-229.897844
-88.052859
37.097456
-94.116668
-25.895779
-155.981237
-111.221357
116.695943
-269.247120
-5600.135381
-10.721654
752.041517
-65.435271
-133.627777
1980.719373
169.612113
34.125198
173.444200
-46.125474
-9.776625
489.175482
-480.969463
-591.701677
-1904.886400
-138.703939
-4322.720207
68.918062
-9027.893993
-163.286244
-131.736720
-22.205766
-122.277306
-7835.909401
31397.913136
-124.997839
-40.797322
-16.431710
-467.698946
18.185625
-101.782564
410.757019
-99.446087
-57.471534
-662.277153
417.248402
1244.089916
-57.315253
-31.507340
-202.180206
-14.666519
14.179086
-365.204923
-625.391472
73.110921
-45.041798
3860.125031
486.370877
2257.215592
121.618398
-79.043701
166.131777
-85.315577
1650.530913
83.220910
-243.411678
-6.445639
-232.216525
-352.230058
-248.380930
-1.203896
94.690085
-2052.567848
130.810201
-207.283860
-551.276794
456.737262
1441.672459
2501.724616
1694.112986
205.736778
243.830619
-60.132237
-210.089311
-27.482178
-130.082890
93.394822
-347.243311
977.668961
-147.427833
-75.035237
701.047370
105.132375
2473.316905
96.661735
-296.746268
406.737204
156989.826469
-461.202787
122.324344
-405.289942
209.545869
44431.281221
182.437025
-4572.542756
-172.723566
2609.008396
233.763661
-228.186755
-193.286310
-606.666000
20252.747466
-111.232732
-16.990061
-15862.334248
596.394633
-3580.767142
-103.310141
-656.033952
-301.942772
-11453.642106
242.885342
-397.767109
60.983222
3145.569222
-83.224847
-15.207860
-1184.797501
-544.900113
22660.703507
65.891785
-6.827094
-12954.015606
-29466.587128
149.323954
-332.322858
-1381.289537
-159.268048
-4.267134
74.257957
-194.551657
611.065830
-17.509944
-430.278822
-1768.251157
412.049849
-346.001848
699.862411
-1.724326
-119.256502
67.237485
247.844123
-3039.003893
-3766.954465
63.297898
133.481424
-8430.087336
538.935227
91.662266
633.216563
-69.605064
-320.130681
795.867906
-24.653817
-413.665626
7977.444521
-370.925944
-7750.648585
39.471385
-37.325532
22047.554703
36.868806
247.092228
391.855619
1445.150727
-280.267768
-9153.542274
-64243.045613
-33562.736921
-5746.960189
-185.737925
321.090311
720.687227
-75.229790
-268.884212
2038.321837
-358.174778
-166.304334
-218.536451
-344.292189
14530.138078
41.285462
45684.160727
451.590233
-387.200844
131.873390
-228.954278
2092.501913
-452.537128
158.602473
-113.065791
-363.665778
287.055346
669.786779
310.366916
-181.268798
-206.869504
-392.612104
6406.177237
13.692293
-614.099707
-88.962637
-3.985572
-159.425920
1261.762394
227.755715
-297.542023
891.394932
58.392559
2552.781494
-9.513273
-76.083261
-154.770110
-140.069209
482.405345
-197.224026
-107.188855
9233.474448
-116.438633
169.072634
-77.523600
15.552124
-20.230382
-370.933457
-35.440067
1407.301303
-0.339802
1362.837035
596.587457
210.778999
11012.641261
-782.556726
-283.298988
345.361142
167.401808
-42.057128
-9.190158