# vtk DataFile Version 2.0
cantilever_tri3_mix
ASCII
DATASET POLYDATA
POINTS 4257 float
0.000000 -6.000000 0.000000
48.000000 -6.000000 0.000000
48.000000 6.000000 0.000000
0.000000 6.000000 0.000000
0.375000 -6.000000 0.000000
0.750000 -6.000000 0.000000
1.125000 -6.000000 0.000000
1.500000 -6.000000 0.000000
1.875000 -6.000000 0.000000
2.250000 -6.000000 0.000000
2.625000 -6.000000 0.000000
3.000000 -6.000000 0.000000
3.375000 -6.000000 0.000000
3.750000 -6.000000 0.000000
4.125000 -6.000000 0.000000
4.500000 -6.000000 0.000000
4.875000 -6.000000 0.000000
5.250000 -6.000000 0.000000
5.625000 -6.000000 0.000000
6.000000 -6.000000 0.000000
6.375000 -6.000000 0.000000
6.750000 -6.000000 0.000000
7.125000 -6.000000 0.000000
7.500000 -6.000000 0.000000
7.875000 -6.000000 0.000000
8.250000 -6.000000 0.000000
8.625000 -6.000000 0.000000
9.000000 -6.000000 0.000000
9.375000 -6.000000 0.000000
9.750000 -6.000000 0.000000
10.125000 -6.000000 0.000000
10.500000 -6.000000 0.000000
10.875000 -6.000000 0.000000
11.250000 -6.000000 0.000000
11.625000 -6.000000 0.000000
12.000000 -6.000000 0.000000
12.375000 -6.000000 0.000000
12.750000 -6.000000 0.000000
13.125000 -6.000000 0.000000
13.500000 -6.000000 0.000000
13.875000 -6.000000 0.000000
14.250000 -6.000000 0.000000
14.625000 -6.000000 0.000000
15.000000 -6.000000 0.000000
15.375000 -6.000000 0.000000
15.750000 -6.000000 0.000000
16.125000 -6.000000 0.000000
16.500000 -6.000000 0.000000
16.875000 -6.000000 0.000000
17.250000 -6.000000 0.000000
17.625000 -6.000000 0.000000
18.000000 -6.000000 0.000000
18.375000 -6.000000 0.000000
18.750000 -6.000000 0.000000
19.125000 -6.000000 0.000000
19.500000 -6.000000 0.000000
19.875000 -6.000000 0.000000
20.250000 -6.000000 0.000000
20.625000 -6.000000 0.000000
21.000000 -6.000000 0.000000
21.375000 -6.000000 0.000000
21.750000 -6.000000 0.000000
22.125000 -6.000000 0.000000
22.500000 -6.000000 0.000000
22.875000 -6.000000 0.000000
23.250000 -6.000000 0.000000
23.625000 -6.000000 0.000000
24.000000 -6.000000 0.000000
24.375000 -6.000000 0.000000
24.750000 -6.000000 0.000000
25.125000 -6.000000 0.000000
25.500000 -6.000000 0.000000
25.875000 -6.000000 0.000000
26.250000 -6.000000 0.000000
26.625000 -6.000000 0.000000
27.000000 -6.000000 0.000000
27.375000 -6.000000 0.000000
27.750000 -6.000000 0.000000
28.125000 -6.000000 0.000000
28.500000 -6.000000 0.000000
28.875000 -6.000000 0.000000
29.250000 -6.000000 0.000000
29.625000 -6.000000 0.000000
30.000000 -6.000000 0.000000
30.375000 -6.000000 0.000000
30.750000 -6.000000 0.000000
31.125000 -6.000000 0.000000
31.500000 -6.000000 0.000000
31.875000 -6.000000 0.000000
32.250000 -6.000000 0.000000
32.625000 -6.000000 0.000000
33.000000 -6.000000 0.000000
33.375000 -6.000000 0.000000
33.750000 -6.000000 0.000000
34.125000 -6.000000 0.000000
34.500000 -6.000000 0.000000
34.875000 -6.000000 0.000000
35.250000 -6.000000 0.000000
35.625000 -6.000000 0.000000
36.000000 -6.000000 0.000000
36.375000 -6.000000 0.000000
36.750000 -6.000000 0.000000
37.125000 -6.000000 0.000000
37.500000 -6.000000 0.000000
37.875000 -6.000000 0.000000
38.250000 -6.000000 0.000000
38.625000 -6.000000 0.000000
39.000000 -6.000000 0.000000
39.375000 -6.000000 0.000000
39.750000 -6.000000 0.000000
40.125000 -6.000000 0.000000
40.500000 -6.000000 0.000000
40.875000 -6.000000 0.000000
41.250000 -6.000000 0.000000
41.625000 -6.000000 0.000000
42.000000 -6.000000 0.000000
42.375000 -6.000000 0.000000
42.750000 -6.000000 0.000000
43.125000 -6.000000 0.000000
43.500000 -6.000000 0.000000
43.875000 -6.000000 0.000000
44.250000 -6.000000 0.000000
44.625000 -6.000000 0.000000
45.000000 -6.000000 0.000000
45.375000 -6.000000 0.000000
45.750000 -6.000000 0.000000
46.125000 -6.000000 0.000000
46.500000 -6.000000 0.000000
46.875000 -6.000000 0.000000
47.250000 -6.000000 0.000000
47.625000 -6.000000 0.000000
48.000000 -5.625000 0.000000
48.000000 -5.250000 0.000000
48.000000 -4.875000 0.000000
48.000000 -4.500000 0.000000
48.000000 -4.125000 0.000000
48.000000 -3.750000 0.000000
48.000000 -3.375000 0.000000
48.000000 -3.000000 0.000000
48.000000 -2.625000 0.000000
48.000000 -2.250000 0.000000
48.000000 -1.875000 0.000000
48.000000 -1.500000 0.000000
48.000000 -1.125000 0.000000
48.000000 -0.750000 0.000000
48.000000 -0.375000 0.000000
48.000000 -0.000000 0.000000
48.000000 0.375000 0.000000
48.000000 0.750000 0.000000
48.000000 1.125000 0.000000
48.000000 1.500000 0.000000
48.000000 1.875000 0.000000
48.000000 2.250000 0.000000
48.000000 2.625000 0.000000
48.000000 3.000000 0.000000
48.000000 3.375000 0.000000
48.000000 3.750000 0.000000
48.000000 4.125000 0.000000
48.000000 4.500000 0.000000
48.000000 4.875000 0.000000
48.000000 5.250000 0.000000
48.000000 5.625000 0.000000
47.625000 6.000000 0.000000
47.250000 6.000000 0.000000
46.875000 6.000000 0.000000
46.500000 6.000000 0.000000
46.125000 6.000000 0.000000
45.750000 6.000000 0.000000
45.375000 6.000000 0.000000
45.000000 6.000000 0.000000
44.625000 6.000000 0.000000
44.250000 6.000000 0.000000
43.875000 6.000000 0.000000
43.500000 6.000000 0.000000
43.125000 6.000000 0.000000
42.750000 6.000000 0.000000
42.375000 6.000000 0.000000
42.000000 6.000000 0.000000
41.625000 6.000000 0.000000
41.250000 6.000000 0.000000
40.875000 6.000000 0.000000
40.500000 6.000000 0.000000
40.125000 6.000000 0.000000
39.750000 6.000000 0.000000
39.375000 6.000000 0.000000
39.000000 6.000000 0.000000
38.625000 6.000000 0.000000
38.250000 6.000000 0.000000
37.875000 6.000000 0.000000
37.500000 6.000000 0.000000
37.125000 6.000000 0.000000
36.750000 6.000000 0.000000
36.375000 6.000000 0.000000
36.000000 6.000000 0.000000
35.625000 6.000000 0.000000
35.250000 6.000000 0.000000
34.875000 6.000000 0.000000
34.500000 6.000000 0.000000
34.125000 6.000000 0.000000
33.750000 6.000000 0.000000
33.375000 6.000000 0.000000
33.000000 6.000000 0.000000
32.625000 6.000000 0.000000
32.250000 6.000000 0.000000
31.875000 6.000000 0.000000
31.500000 6.000000 0.000000
31.125000 6.000000 0.000000
30.750000 6.000000 0.000000
30.375000 6.000000 0.000000
30.000000 6.000000 0.000000
29.625000 6.000000 0.000000
29.250000 6.000000 0.000000
28.875000 6.000000 0.000000
28.500000 6.000000 0.000000
28.125000 6.000000 0.000000
27.750000 6.000000 0.000000
27.375000 6.000000 0.000000
27.000000 6.000000 0.000000
26.625000 6.000000 0.000000
26.250000 6.000000 0.000000
25.875000 6.000000 0.000000
25.500000 6.000000 0.000000
25.125000 6.000000 0.000000
24.750000 6.000000 0.000000
24.375000 6.000000 0.000000
24.000000 6.000000 0.000000
23.625000 6.000000 0.000000
23.250000 6.000000 0.000000
22.875000 6.000000 0.000000
22.500000 6.000000 0.000000
22.125000 6.000000 0.000000
21.750000 6.000000 0.000000
21.375000 6.000000 0.000000
21.000000 6.000000 0.000000
20.625000 6.000000 0.000000
20.250000 6.000000 0.000000
19.875000 6.000000 0.000000
19.500000 6.000000 0.000000
19.125000 6.000000 0.000000
18.750000 6.000000 0.000000
18.375000 6.000000 0.000000
18.000000 6.000000 0.000000
17.625000 6.000000 0.000000
17.250000 6.000000 0.000000
16.875000 6.000000 0.000000
16.500000 6.000000 0.000000
16.125000 6.000000 0.000000
15.750000 6.000000 0.000000
15.375000 6.000000 0.000000
15.000000 6.000000 0.000000
14.625000 6.000000 0.000000
14.250000 6.000000 0.000000
13.875000 6.000000 0.000000
13.500000 6.000000 0.000000
13.125000 6.000000 0.000000
12.750000 6.000000 0.000000
12.375000 6.000000 0.000000
12.000000 6.000000 0.000000
11.625000 6.000000 0.000000
11.250000 6.000000 0.000000
10.875000 6.000000 0.000000
10.500000 6.000000 0.000000
10.125000 6.000000 0.000000
9.750000 6.000000 0.000000
9.375000 6.000000 0.000000
9.000000 6.000000 0.000000
8.625000 6.000000 0.000000
8.250000 6.000000 0.000000
7.875000 6.000000 0.000000
7.500000 6.000000 0.000000
7.125000 6.000000 0.000000
6.750000 6.000000 0.000000
6.375000 6.000000 0.000000
6.000000 6.000000 0.000000
5.625000 6.000000 0.000000
5.250000 6.000000 0.000000
4.875000 6.000000 0.000000
4.500000 6.000000 0.000000
4.125000 6.000000 0.000000
3.750000 6.000000 0.000000
3.375000 6.000000 0.000000
3.000000 6.000000 0.000000
2.625000 6.000000 0.000000
2.250000 6.000000 0.000000
1.875000 6.000000 0.000000
1.500000 6.000000 0.000000
1.125000 6.000000 0.000000
0.750000 6.000000 0.000000
0.375000 6.000000 0.000000
0.000000 5.625000 0.000000
0.000000 5.250000 0.000000
0.000000 4.875000 0.000000
0.000000 4.500000 0.000000
0.000000 4.125000 0.000000
0.000000 3.750000 0.000000
0.000000 3.375000 0.000000
0.000000 3.000000 0.000000
0.000000 2.625000 0.000000
0.000000 2.250000 0.000000
0.000000 1.875000 0.000000
0.000000 1.500000 0.000000
0.000000 1.125000 0.000000
0.000000 0.750000 0.000000
0.000000 0.375000 0.000000
0.000000 0.000000 0.000000
0.000000 -0.375000 0.000000
0.000000 -0.750000 0.000000
0.000000 -1.125000 0.000000
0.000000 -1.500000 0.000000
0.000000 -1.875000 0.000000
0.000000 -2.250000 0.000000
0.000000 -2.625000 0.000000
0.000000 -3.000000 0.000000
0.000000 -3.375000 0.000000
0.000000 -3.750000 0.000000
0.000000 -4.125000 0.000000
0.000000 -4.500000 0.000000
0.000000 -4.875000 0.000000
0.000000 -5.250000 0.000000
0.000000 -5.625000 0.000000
0.375000 -5.625000 0.000000
0.375000 -5.250000 0.000000
0.375000 -4.875000 0.000000
0.375000 -4.500000 0.000000
0.375000 -4.125000 0.000000
0.375000 -3.750000 0.000000
0.375000 -3.375000 0.000000
0.375000 -3.000000 0.000000
0.375000 -2.625000 0.000000
0.375000 -2.250000 0.000000
0.375000 -1.875000 0.000000
0.375000 -1.500000 0.000000
0.375000 -1.125000 0.000000
0.375000 -0.750000 0.000000
0.375000 -0.375000 0.000000
0.375000 0.000000 0.000000
0.375000 0.375000 0.000000
0.375000 0.750000 0.000000
0.375000 1.125000 0.000000
0.375000 1.500000 0.000000
0.375000 1.875000 0.000000
0.375000 2.250000 0.000000
0.375000 2.625000 0.000000
0.375000 3.000000 0.000000
0.375000 3.375000 0.000000
0.375000 3.750000 0.000000
0.375000 4.125000 0.000000
0.375000 4.500000 0.000000
0.375000 4.875000 0.000000
0.375000 5.250000 0.000000
0.375000 5.625000 0.000000
[...]
POINT_DATA 4257
SCALARS P float 1
LOOKUP_TABLE default
4566.138410
0.062380
0.009563
-2858.182243
833.901968
762.778767
752.257705
764.915644
784.180799
803.093709
819.840672
833.655812
844.461278
852.434601
857.858429
861.045054
862.302083
861.915780
860.144097
857.214554
853.324747
848.644209
843.316920
837.464078
831.186882
824.569203
817.680057
810.575849
803.302372
795.896557
788.387998
780.800253
773.151951
765.457727
757.728995
749.974593
742.201314
734.414335
726.617569
718.813941
711.005619
703.194185
695.380780
687.566213
679.751044
671.935649
664.120272
656.305065
648.490109
640.675443
632.861074
625.046991
617.233172
609.419587
601.606208
593.793004
585.979947
578.167011
570.354175
562.541418
554.728726
546.916083
539.103479
531.290904
523.478352
515.665816
507.853291
500.040776
492.228266
484.415760
476.603257
468.790754
460.978253
453.165752
445.353251
437.540749
429.728247
421.915745
414.103243
406.290740
398.478237
390.665734
382.853231
375.040727
367.228224
359.415721
351.603218
343.790715
335.978213
328.165710
320.353208
312.540706
304.728204
296.915702
289.103200
281.290699
273.478197
265.665696
257.853195
250.040694
242.228194
234.415693
226.603193
218.790692
210.978192
203.165691
195.353191
187.540691
179.728191
171.915691
164.103191
156.290691
148.478191
140.665692
132.853192
125.040692
117.228193
109.415693
101.603194
93.790695
85.978196
78.165697
70.353199
62.540701
54.728203
46.915709
39.103201
31.290756
23.478047
15.666435
7.851111
0.036972
0.041070
0.040370
0.040654
0.040634
0.040662
0.040668
0.040675
0.040678
0.040680
0.040682
0.040683
0.040684
0.040684
0.040684
0.040685
0.040684
0.040684
0.040684
0.040683
0.040682
0.040681
0.040680
0.040678
0.040676
0.040671
0.040678
0.040650
0.040848
0.040526
0.044379
-7.763185
-15.584801
-23.396327
-31.209282
-39.021747
-46.834284
-54.646789
-62.459296
-70.271799
-78.084302
-85.896803
-93.709305
-101.521806
-109.334307
-117.146807
-124.959308
-132.771808
-140.584308
-148.396809
-156.209309
-164.021809
-171.834309
-179.646809
-187.459309
-195.271809
-203.084308
-210.896808
-218.709308
-226.521807
-234.334307
-242.146806
-249.959305
-257.771804
-265.584303
-273.396802
-281.209300
-289.021799
-296.834297
-304.646795
-312.459292
-320.271790
-328.084287
-335.896784
-343.709280
-351.521777
-359.334273
-367.146768
-374.959264
-382.771759
-390.584255
-398.396750
-406.209246
-414.021742
-421.834239
-429.646737
-437.459237
-445.271739
-453.084245
-460.896755
-468.709271
-476.521794
-484.334328
-492.146875
-499.959438
-507.772021
-515.584631
-523.397273
-531.209956
-539.022689
-546.835485
-554.648356
-562.461321
-570.274397
-578.087609
-585.900983
-593.714548
-601.528338
-609.342390
-617.156741
-624.971431
-632.786497
-640.601971
-648.417871
-656.234199
-664.050922
-671.867962
-679.685171
-687.502307
-695.318986
-703.134643
-710.948455
-718.759265
-726.565462
-734.364848
-742.154454
-749.930320
-757.687207
-765.418257
-773.114554
-780.764603
-788.353687
-795.863094
-803.269195
-810.542347
-817.645601
-824.533205
-831.148876
-837.423842
-843.274644
-848.600731
-853.281890
-857.175585
-860.114385
-861.903718
-862.320426
-861.112932
-858.004229
-852.701244
-844.911589
-834.394935
-820.999230
-805.036380
-786.845100
-771.190811
-755.129879
-794.430695
-809.443741
-1833.430407
-1548.448307
-1423.504468
-1291.953638
-1178.010334
-1067.628719
-959.069954
-851.513015
-744.449441
-637.694625
-531.147531
-424.751646
-318.469172
-212.268948
-106.121775
0.001498
106.130478
212.295216
318.526276
424.855471
531.318424
637.959950
744.847630
852.112171
959.938628
1068.979464
1180.671226
1293.076786
1438.619582
1580.418863
1582.092762
1502.478885
1323.977726
1264.812966
1177.246639
1085.526762
992.467236
897.101127
800.206223
702.106649
603.094461
503.407771
403.229340
302.702369
201.939903
101.033890
0.063084
-100.899859
-201.781616
-302.501322
-402.963042
-503.047109
-602.599565
-701.417994
-799.239950
-895.704330
-990.305695
-1082.777936
-1170.225093
-1254.627007
-1339.591866
-1214.153634
1015.429201
1127.348734
1106.238564
1059.608804
993.605880
917.716558
835.675305
749.410507
660.191059
568.841234
475.941819
381.917780
287.090907
191.714443
95.996830
0.119551
-95.748287
-191.436761
-286.761808
-381.510152
-475.420401
-568.157781
-659.275271
-748.152472
-833.923547
-915.095692
-989.678716
-1054.112411
-1091.064273
-1105.893677
-1101.119145
891.899547
968.609592
984.277429
958.497270
910.779493
849.066074
778.358210
701.531349
620.385346
536.125422
449.593525
361.404637
272.026082
181.828016
91.117809
0.165272
-90.777090
-181.455969
-271.599018
-360.894216
-448.963772
-535.328315
-619.356244
-700.167898
-776.534812
-846.615985
-906.963968
-954.564095
-980.529412
-952.358147
-879.765395
838.304596
884.735861
896.267345
879.152782
841.210770
789.070942
726.996151
657.868670
583.632284
505.642224
424.876259
342.063993
257.769726
172.447301
86.478488
0.201648
-86.065025
-172.002656
-257.270760
-341.483758
-424.182036
-504.792107
-582.573829
-656.535501
-725.273642
-786.964857
-838.595881
-875.068081
-894.655316
-888.377897
-844.517611
816.566298
836.948537
837.996142
819.826594
785.552835
738.762118
682.535657
619.221354
550.572352
477.895334
402.178855
324.187641
244.529916
163.705907
82.143803
0.227745
-81.678837
-163.212033
-243.986248
-323.570770
-401.461952
-477.047232
-549.555365
-618.004204
-681.074899
-737.001572
-783.830671
-818.111244
-835.832002
-835.811183
-817.620660
809.080400
809.632408
799.374360
776.698839
742.266361
697.765210
645.059692
585.833934
521.487664
453.150869
381.730349
307.959985
232.444520
155.695376
78.159709
0.244524
-77.662353
-155.172839
-231.879191
-307.333134
-381.021888
-452.340624
-520.555110
-584.762889
-643.870850
-696.451323
-740.891864
-775.706995
-799.095884
-810.133545
-810.455299
807.847754
793.747374
773.580041
745.477320
709.070080
664.931841
614.053423
557.520517
496.355871
431.461264
363.610234
293.461965
221.582160
148.464709
74.551926
0.252984
-74.039091
-147.931216
-221.014097
-292.845486
-362.931920
-430.709492
-495.524752
-556.608053
-613.080171
-663.967610
-708.168872
-744.725030
-773.188669
-793.900704
-808.572381
809.166744
784.242483
755.996029
722.716084
683.669087
638.850030
588.687866
533.817008
474.931813
412.708634
347.771619
280.683450
211.948831
142.023841
71.327594
0.254552
-70.813133
-141.493411
-211.392158
-280.091066
-347.135773
-412.024270
-474.200091
-533.049200
-587.903148
-638.093254
-683.024599
-722.271719
-755.823551
-784.402436
-809.649816
811.148255
778.241316
743.620162
705.845590
664.111674
618.143425
568.039136
514.123504
456.836229
396.659131
334.074239
269.543141
203.499632
136.350069
68.477958
0.250700
-67.972637
-135.833171
-202.964126
-268.983186
-333.486167
-396.042715
-456.196036
-513.472905
-567.402583
-617.553358
-663.612178
-705.493755
-743.465464
-778.312954
-811.418390
812.845469
774.060456
734.509851
693.025169
648.851283
601.609942
551.219951
497.807815
441.629867
383.013591
322.318159
259.910500
196.152568
131.396090
65.982027
0.242848
-65.493668
-130.899968
-195.644319
-259.387094
-321.778672
-382.460395
-441.069729
-497.252869
-550.689910
-601.132542
-648.458139
-692.747900
-734.371915
-774.075433
-812.984055
813.803645
770.709674
727.405615
682.958700
636.708577
588.259733
537.444159
484.269323
428.866692
371.448171
312.273240
251.626264
189.802145
127.098200
63.810374
0.232253
-63.344241
-126.627423
-189.324417
-251.140561
-311.780439
-370.951775
-428.373746
-483.790956
-536.995512
-587.859789
-636.378444
-682.718336
-727.266757
-770.677995
-813.852090
813.834522
767.609306
721.490829
674.741061
626.803164
577.305746
526.048208
472.971816
418.127083
361.643080
303.701941
244.519435
184.331214
123.383728
61.928685
0.219961
-61.487947
-122.940755
-183.885221
-244.070733
-303.252430
-361.196715
-417.690282
-472.553782
-525.660754
-576.962429
-626.517575
-674.525079
-721.349904
-767.545803
-813.825142
812.895485
764.428005
716.237669
667.743585
618.486236
568.135827
516.489372
463.455672
409.035458
353.300590
296.375193
238.420015
179.620340
120.177114
60.300737
0.206794
-59.886936
-119.762848
-179.205889
-238.006539
-295.965075
-352.897755
-408.645549
-463.086048
-516.148823
-567.833913
-618.231939
-667.544141
-716.095271
-764.343664
-812.849834
811.022286
760.986364
711.308060
661.531853
611.283858
560.280865
508.333209
455.337906
401.267145
346.154657
290.082229
233.167631
175.554528
117.404468
58.890690
0.193369
-58.504165
-117.018719
-175.170532
-232.787043
-289.707610
-345.789648
-400.916541
-455.007562
-508.029702
-560.010937
-611.053460
-661.345483
-711.166368
-760.889961
-810.955426
808.290501
757.198175
706.489260
655.807686
604.852305
553.385248
501.237341
448.305903
394.548561
339.974624
284.635707
228.616683
172.027579
114.996663
57.664688
0.180123
-57.304939
-114.638509
-171.672427
-228.266436
-284.292916
-339.642575
-394.231274
-448.008006
-500.963786
-553.140882
-604.641178
-655.632705
-706.350433
-757.096127
-808.212637
804.793158
753.033910
701.651470
650.368391
598.944034
547.181753
494.935160
442.108475
388.653643
334.565107
279.873461
224.638826
168.944499
112.891181
56.591868
0.167352
-56.257838
-112.559246
-168.616306
-224.316369
-279.559176
-334.261914
-388.364914
-441.837903
-494.686529
-546.958632
-598.749287
-650.204028
-701.517324
-752.930774
-804.711092
800.627741
748.497701
696.719637
645.078121
593.382160
541.471152
489.221115
436.546337
383.398485
329.763627
275.658061
221.123551
166.222446
111.032979
55.644867
0.155241
-55.335156
-110.725637
-165.919221
-220.826430
-275.369323
-329.485855
-383.134519
-436.299170
-488.993709
-541.266225
-593.201846
-644.923936
-696.591467
-748.396534
-800.545836
795.888804
743.612714
691.654549
639.847696
588.041493
536.106072
483.938112
431.463064
378.635403
325.437115
271.875041
217.977514
163.790666
109.374656
54.799978
0.143895
-54.513002
-109.090159
-163.510415
-217.703432
-271.609232
-325.181865
-378.393135
-431.236249
-483.729135
-535.917086
-587.874187
-639.703322
-691.533143
-743.515426
-795.809684
790.663967
738.411876
686.440098
634.620354
582.834500
530.978413
478.967092
426.737038
374.247122
321.477989
268.430451
215.123142
161.589769
107.876128
54.037051
0.133362
-53.771148
-107.612708
-161.330563
-214.869973
-268.185254
-321.242797
-374.024026
-426.528125
-478.774341
-530.803602
-582.679045
-634.485370
-686.325792
-738.319512
-790.589038
785.032013
732.932032
681.074673
629.361674
577.700944
526.009638
474.218576
422.274545
370.141445
317.800263
265.248154
212.496858
159.570653
106.504036
53.339235
0.123650
-53.092738
-106.259959
-159.330654
-212.262650
-265.021510
-317.583001
-369.935399
-422.081511
-474.040247
-525.847535
-577.556314
-629.235562
-680.967442
-732.845007
-784.961832
779.062238
727.210353
675.565365
624.052445
572.600244
521.143329
469.625918
418.004001
366.246570
314.335912
262.267150
210.047194
157.693245
105.230996
52.692639
0.114743
-52.463923
-105.004596
-157.470728
-209.830158
-262.057218
-314.134722
-366.055750
-417.825127
-469.460472
-520.992656
-572.465479
-623.934589
-675.464910
-727.128633
-778.996795
772.814578
721.282213
669.924098
618.683623
567.505869
516.339513
465.139959
413.871213
362.507085
311.031645
259.439068
207.732949
155.925226
104.034802
52.085953
0.106608
-51.873465
-103.824501
-155.718584
-207.531446
-259.244194
-310.844883
-362.329893
-413.705000
-464.986047
-516.199114
-567.380039
-618.573330
-669.829923
-721.205463
-772.753494
766.340164
715.180027
664.165071
613.252794
562.401213
511.570355
460.724848
409.835540
358.880611
307.846102
256.725931
205.521478
154.240813
102.897645
51.510076
0.099206
-51.312347
-102.701966
-154.048553
-205.334009
-256.544617
-307.672295
-358.715629
-409.680653
-460.581254
-511.439163
-562.283413
-613.149318
-664.076558
-715.107721
-766.282841
759.682111
708.932711
658.303117
607.761696
557.276595
506.816902
456.354776
405.866813
355.335046
304.747477
254.098201
203.387169
152.619640
101.805395
50.957759
0.092490
-50.773415
-101.622961
-152.440385
-203.212358
-253.929089
-304.585295
-355.180996
-405.722050
-456.220392
-506.693920
-557.165944
-607.664268
-658.219575
-708.864217
-759.627844
752.876415
702.565542
652.352677
602.214510
552.127073
502.066640
452.011459
401.942897
351.846310
301.711545
251.533123
201.310119
151.045782
100.746948
50.423285
0.086414
-50.251047
-100.576479
-150.878257
-201.146705
-251.374971
-301.559782
-351.702033
-401.807161
-451.885265
-501.950932
-552.022722
-602.122360
-652.273390
-702.500182
-752.824458
745.952849
696.100262
646.327203
596.616694
546.950867
497.311657
447.682196
398.047767
348.396540
298.720037
249.013332
199.275006
149.506897
99.713660
49.902189
0.080932
-49.740871
-99.553977
-149.349932
-199.121832
-248.865005
-298.577591
-348.260977
-397.920053
-447.563251
-497.202351
-546.852011
-596.529075
-646.251463
-696.037361
-745.902474
738.935839
689.555323
640.238844
590.974210
541.748238
492.547291
443.358391
394.170000
344.972646
295.759325
246.525710
197.270153
147.993518
98.698868
49.391015
0.075997
-49.239524
-98.548882
-147.846035
-197.126157
-246.386171
-295.625189
-344.844830
-394.049388
-443.245826
-492.443574
-541.654117
-590.890411
-640.165976
-689.494236
-738.886367
731.845264
682.946203
634.098326
585.293024
536.520690
487.771124
439.034424
390.301615
341.565169
292.819361
244.060455
195.286747
146.498453
97.697485
48.887115
0.071568
-48.744441
-97.556195
-146.359461
-195.150957
-243.928754
-292.692614
-341.444216
-390.187262
-438.927443
-487.672246
-536.430600
-585.212386
-634.027702
-682.886336
-731.796086
724.697184
676.285758
627.914945
579.578798
531.270417
482.982252
434.706812
386.437170
338.167392
289.892836
241.610328
193.318212
145.016293
96.705666
48.388476
0.067603
-48.253694
-96.572152
-144.884885
-193.189738
-241.485597
-289.772639
-338.052494
-386.328306
-434.604684
-482.887526
-531.183715
-579.500718
-627.845996
-676.226582
-724.647773
717.504480
669.584565
621.696643
573.836723
525.999932
478.180753
430.373570
382.573080
334.774641
286.974520
239.170054
191.359702
143.543017
95.720535
47.893585
0.064062
-47.765848
-95.593957
-143.418365
-191.237729
-239.051501
-286.860107
-334.665062
-382.469004
-430.275632
-478.089555
-525.916035
-573.760658
-621.628865
-669.525618
-717.454392
710.277411
662.851253
615.450116
568.071426
520.711817
473.367312
426.033746
378.707094
331.383752
284.060742
236.735851
189.407689
142.075676
94.739967
47.401317
0.060910
-47.279850
-94.619557
-141.957021
-189.291477
-236.622754
-283.951415
-331.278824
-378.607170
-425.939399
-473.279081
-520.630203
-567.996897
-615.383071
-662.792146
-710.226284
703.024086
656.092807
609.180952
562.286957
515.408566
468.542957
421.687079
374.837906
327.992660
281.148984
234.305057
187.459651
140.612133
93.762411
46.910845
0.058113
-46.794941
-93.647469
-140.498786
-187.348525
-234.196762
-281.044111
-327.891779
-374.741561
-421.595784
-468.457191
-515.328773
-562.213546
-609.114266
-656.033218
-702.971639
695.750875
649.314838
602.893766
556.486801
510.092491
463.708875
417.333751
370.964863
324.600089
278.237577
231.875842
185.513818
139.150869
92.786756
46.421569
0.055638
-46.310585
-92.676644
-139.042205
-185.407167
-231.771755
-278.136589
-324.502712
-370.871583
-417.245027
-463.625133
-510.014117
-556.414149
-602.827126
-649.254512
-695.696898
688.462740
642.521820
596.592336
550.673915
504.765676
458.866297
412.974208
367.087751
321.205319
275.325465
229.446988
183.568977
137.690826
91.812213
45.933058
0.053455
-45.826412
-91.706356
-137.586278
-183.466249
-229.346576
-275.227848
-321.110957
-366.997079
-412.887631
-458.784189
-504.688374
-550.601719
-596.525489
-642.460558
-688.407087
681.163522
635.717294
590.279731
544.850780
499.429961
454.016412
408.609041
363.206644
317.808012
272.412025
227.017720
181.624327
136.231286
90.838243
45.445013
0.051537
-45.342177
-90.736119
-136.130343
-181.525022
-226.920501
-272.317321
-317.716231
-363.118173
-408.524238
-453.935601
-499.353433
-544.778788
-590.212472
-635.654951
-681.106103
673.856167
628.904041
583.958421
539.019454
494.086934
449.160331
404.238902
359.321786
314.408085
269.496938
224.587576
179.679357
134.771779
89.864481
44.957224
0.049856
-44.857725
-89.765621
-134.673979
-179.583029
-224.493120
-269.404736
-314.318500
-359.235159
-404.155546
-449.080527
-494.010931
-538.947460
-583.890595
-628.840518
-673.796940
666.542919
622.084233
577.630381
533.181631
488.737954
444.299054
399.864445
355.433520
311.005619
266.580088
222.156315
177.733770
133.312011
88.890694
44.469554
0.048391
-44.372964
-88.794677
-133.216944
-177.640019
-222.064238
-266.490023
-310.917889
-355.348423
-399.782254
-444.220011
-488.662267
-533.109471
-577.561873
-622.019470
-666.481879
659.225469
615.259549
571.297180
527.338690
483.384166
439.433468
395.486295
351.542229
307.600793
263.661491
219.723843
175.787412
131.851817
87.916739
43.981914
0.047117
-43.887851
-87.823188
-131.759113
-175.695882
-219.633803
-263.573243
-307.514619
-351.458390
-395.405026
-439.354976
-483.308624
-527.266237
-571.227909
-615.193519
-659.162646
651.905080
608.431278
564.960052
521.491749
478.026522
434.564339
391.105026
347.648306
304.193837
260.741248
217.290163
173.840227
130.391115
86.942540
43.494249
0.046015
-43.402371
-86.851117
-130.300446
-173.750602
-217.201861
-260.654533
-304.108958
-347.565488
-391.024472
-434.486224
-477.950989
-521.418906
-564.889967
-608.363982
-651.840527
644.582686
601.600404
558.619962
515.641702
472.665810
429.692322
386.721153
343.752127
300.785002
257.819504
214.855340
171.892225
128.929883
85.968062
43.006528
0.045065
-42.916532
-85.878469
-128.840958
-171.804224
-214.768509
-257.734074
-300.701190
-343.670128
-386.641140
-429.614441
-472.590177
-515.568400
-558.549037
-601.531865
-644.516477
637.258967
594.767668
552.277658
509.789262
467.302674
424.817971
382.335128
339.854039
297.374538
254.896425
212.419473
169.943452
127.468134
84.993299
42.518738
0.044251
-42.430355
-84.905272
-127.380696
-169.856829
-212.333880
-254.812064
-297.291598
-339.772685
-382.255509
-424.740207
-467.226857
-509.715455
-552.205888
-594.697925
-637.191189
629.934412
587.933623
545.933719
503.934992
461.937636
419.941748
377.947340
335.954355
293.962685
251.972182
209.982675
167.993978
126.005904
84.018264
42.030875
0.043556
-41.943867
-83.931570
-125.919727
-167.908517
-209.898117
-251.888704
-293.880447
-335.873501
-377.867992
-419.864007
-461.861574
-503.860653
-545.861114
-587.862729
-629.865161
622.609365
581.098680
539.588584
498.079335
456.571117
415.064032
373.558118
332.053351
290.549661
249.046942
207.545065
166.043883
124.543241
83.042980
41.542941
0.042967
-41.457099
-82.957413
-124.458127
-165.959395
-207.461366
-248.964184
-290.467982
-331.972873
-373.478943
-414.986241
-456.494765
-498.004451
-539.515167
-581.026698
-622.538745
615.284065
574.263138
533.242586
492.222635
451.203451
410.185137
369.167742
328.151264
287.135660
246.120858
205.106759
164.093247
123.080196
82.067473
41.054943
0.042469
-40.970085
-81.982854
-122.995972
-164.009568
-205.023766
-246.038683
-287.054419
-328.071059
-369.088659
-410.107240
-451.126780
-492.147208
-533.168391
-574.190136
-615.212181
607.958673
567.427212
526.895976
486.365159
445.834906
405.305316
364.776442
324.248296
283.720855
243.194069
202.667864
162.142149
121.616822
81.091774
40.566889
0.042052
-40.482855
-81.007947
-121.533338
-162.059137
-202.585446
-243.112357
-283.639949
-324.168280
-364.697386
-405.227270
-445.757900
-486.289198
-526.821043
-567.353261
-607.885630
600.633289
560.591054
520.548940
480.507109
440.465690
400.424772
360.384408
320.344617
280.305392
240.266696
200.228476
160.190661
120.153169
80.115910
40.078788
0.041705
-39.995439
-80.032740
-120.070296
-160.108195
-200.146522
-240.185348
-280.224735
-320.264722
-360.305329
-400.346548
-440.388341
-480.430634
-520.473313
-560.516229
-600.559192
593.307978
553.754770
514.201613
474.648642
435.095968
395.543668
355.991795
316.440370
276.889395
237.338845
197.788681
158.238849
118.689283
79.139909
39.590648
0.041418
-39.507863