# vtk DataFile Version 2.0
cantilever_tri3_mix
ASCII
DATASET POLYDATA
POINTS 4165 float
0.000000 -6.000000 0.000000
48.000000 -6.000000 0.000000
48.000000 6.000000 0.000000
0.000000 6.000000 0.000000
0.375000 -6.000000 0.000000
0.750000 -6.000000 0.000000
1.125000 -6.000000 0.000000
1.500000 -6.000000 0.000000
1.875000 -6.000000 0.000000
2.250000 -6.000000 0.000000
2.625000 -6.000000 0.000000
3.000000 -6.000000 0.000000
3.375000 -6.000000 0.000000
3.750000 -6.000000 0.000000
4.125000 -6.000000 0.000000
4.500000 -6.000000 0.000000
4.875000 -6.000000 0.000000
5.250000 -6.000000 0.000000
5.625000 -6.000000 0.000000
6.000000 -6.000000 0.000000
6.375000 -6.000000 0.000000
6.750000 -6.000000 0.000000
7.125000 -6.000000 0.000000
7.500000 -6.000000 0.000000
7.875000 -6.000000 0.000000
8.250000 -6.000000 0.000000
8.625000 -6.000000 0.000000
9.000000 -6.000000 0.000000
9.375000 -6.000000 0.000000
9.750000 -6.000000 0.000000
10.125000 -6.000000 0.000000
10.500000 -6.000000 0.000000
10.875000 -6.000000 0.000000
11.250000 -6.000000 0.000000
11.625000 -6.000000 0.000000
12.000000 -6.000000 0.000000
12.375000 -6.000000 0.000000
12.750000 -6.000000 0.000000
13.125000 -6.000000 0.000000
13.500000 -6.000000 0.000000
13.875000 -6.000000 0.000000
14.250000 -6.000000 0.000000
14.625000 -6.000000 0.000000
15.000000 -6.000000 0.000000
15.375000 -6.000000 0.000000
15.750000 -6.000000 0.000000
16.125000 -6.000000 0.000000
16.500000 -6.000000 0.000000
16.875000 -6.000000 0.000000
17.250000 -6.000000 0.000000
17.625000 -6.000000 0.000000
18.000000 -6.000000 0.000000
18.375000 -6.000000 0.000000
18.750000 -6.000000 0.000000
19.125000 -6.000000 0.000000
19.500000 -6.000000 0.000000
19.875000 -6.000000 0.000000
20.250000 -6.000000 0.000000
20.625000 -6.000000 0.000000
21.000000 -6.000000 0.000000
21.375000 -6.000000 0.000000
21.750000 -6.000000 0.000000
22.125000 -6.000000 0.000000
22.500000 -6.000000 0.000000
22.875000 -6.000000 0.000000
23.250000 -6.000000 0.000000
23.625000 -6.000000 0.000000
24.000000 -6.000000 0.000000
24.375000 -6.000000 0.000000
24.750000 -6.000000 0.000000
25.125000 -6.000000 0.000000
25.500000 -6.000000 0.000000
25.875000 -6.000000 0.000000
26.250000 -6.000000 0.000000
26.625000 -6.000000 0.000000
27.000000 -6.000000 0.000000
27.375000 -6.000000 0.000000
27.750000 -6.000000 0.000000
28.125000 -6.000000 0.000000
28.500000 -6.000000 0.000000
28.875000 -6.000000 0.000000
29.250000 -6.000000 0.000000
29.625000 -6.000000 0.000000
30.000000 -6.000000 0.000000
30.375000 -6.000000 0.000000
30.750000 -6.000000 0.000000
31.125000 -6.000000 0.000000
31.500000 -6.000000 0.000000
31.875000 -6.000000 0.000000
32.250000 -6.000000 0.000000
32.625000 -6.000000 0.000000
33.000000 -6.000000 0.000000
33.375000 -6.000000 0.000000
33.750000 -6.000000 0.000000
34.125000 -6.000000 0.000000
34.500000 -6.000000 0.000000
34.875000 -6.000000 0.000000
35.250000 -6.000000 0.000000
35.625000 -6.000000 0.000000
36.000000 -6.000000 0.000000
36.375000 -6.000000 0.000000
36.750000 -6.000000 0.000000
37.125000 -6.000000 0.000000
37.500000 -6.000000 0.000000
37.875000 -6.000000 0.000000
38.250000 -6.000000 0.000000
38.625000 -6.000000 0.000000
39.000000 -6.000000 0.000000
39.375000 -6.000000 0.000000
39.750000 -6.000000 0.000000
40.125000 -6.000000 0.000000
40.500000 -6.000000 0.000000
40.875000 -6.000000 0.000000
41.250000 -6.000000 0.000000
41.625000 -6.000000 0.000000
42.000000 -6.000000 0.000000
42.375000 -6.000000 0.000000
42.750000 -6.000000 0.000000
43.125000 -6.000000 0.000000
43.500000 -6.000000 0.000000
43.875000 -6.000000 0.000000
44.250000 -6.000000 0.000000
44.625000 -6.000000 0.000000
45.000000 -6.000000 0.000000
45.375000 -6.000000 0.000000
45.750000 -6.000000 0.000000
46.125000 -6.000000 0.000000
46.500000 -6.000000 0.000000
46.875000 -6.000000 0.000000
47.250000 -6.000000 0.000000
47.625000 -6.000000 0.000000
48.000000 -5.625000 0.000000
48.000000 -5.250000 0.000000
48.000000 -4.875000 0.000000
48.000000 -4.500000 0.000000
48.000000 -4.125000 0.000000
48.000000 -3.750000 0.000000
48.000000 -3.375000 0.000000
48.000000 -3.000000 0.000000
48.000000 -2.625000 0.000000
48.000000 -2.250000 0.000000
48.000000 -1.875000 0.000000
48.000000 -1.500000 0.000000
48.000000 -1.125000 0.000000
48.000000 -0.750000 0.000000
48.000000 -0.375000 0.000000
48.000000 -0.000000 0.000000
48.000000 0.375000 0.000000
48.000000 0.750000 0.000000
48.000000 1.125000 0.000000
48.000000 1.500000 0.000000
48.000000 1.875000 0.000000
48.000000 2.250000 0.000000
48.000000 2.625000 0.000000
48.000000 3.000000 0.000000
48.000000 3.375000 0.000000
48.000000 3.750000 0.000000
48.000000 4.125000 0.000000
48.000000 4.500000 0.000000
48.000000 4.875000 0.000000
48.000000 5.250000 0.000000
48.000000 5.625000 0.000000
47.625000 6.000000 0.000000
47.250000 6.000000 0.000000
46.875000 6.000000 0.000000
46.500000 6.000000 0.000000
46.125000 6.000000 0.000000
45.750000 6.000000 0.000000
45.375000 6.000000 0.000000
45.000000 6.000000 0.000000
44.625000 6.000000 0.000000
44.250000 6.000000 0.000000
43.875000 6.000000 0.000000
43.500000 6.000000 0.000000
43.125000 6.000000 0.000000
42.750000 6.000000 0.000000
42.375000 6.000000 0.000000
42.000000 6.000000 0.000000
41.625000 6.000000 0.000000
41.250000 6.000000 0.000000
40.875000 6.000000 0.000000
40.500000 6.000000 0.000000
40.125000 6.000000 0.000000
39.750000 6.000000 0.000000
39.375000 6.000000 0.000000
39.000000 6.000000 0.000000
38.625000 6.000000 0.000000
38.250000 6.000000 0.000000
37.875000 6.000000 0.000000
37.500000 6.000000 0.000000
37.125000 6.000000 0.000000
36.750000 6.000000 0.000000
36.375000 6.000000 0.000000
36.000000 6.000000 0.000000
35.625000 6.000000 0.000000
35.250000 6.000000 0.000000
34.875000 6.000000 0.000000
34.500000 6.000000 0.000000
34.125000 6.000000 0.000000
33.750000 6.000000 0.000000
33.375000 6.000000 0.000000
33.000000 6.000000 0.000000
32.625000 6.000000 0.000000
32.250000 6.000000 0.000000
31.875000 6.000000 0.000000
31.500000 6.000000 0.000000
31.125000 6.000000 0.000000
30.750000 6.000000 0.000000
30.375000 6.000000 0.000000
30.000000 6.000000 0.000000
29.625000 6.000000 0.000000
29.250000 6.000000 0.000000
28.875000 6.000000 0.000000
28.500000 6.000000 0.000000
28.125000 6.000000 0.000000
27.750000 6.000000 0.000000
27.375000 6.000000 0.000000
27.000000 6.000000 0.000000
26.625000 6.000000 0.000000
26.250000 6.000000 0.000000
25.875000 6.000000 0.000000
25.500000 6.000000 0.000000
25.125000 6.000000 0.000000
24.750000 6.000000 0.000000
24.375000 6.000000 0.000000
24.000000 6.000000 0.000000
23.625000 6.000000 0.000000
23.250000 6.000000 0.000000
22.875000 6.000000 0.000000
22.500000 6.000000 0.000000
22.125000 6.000000 0.000000
21.750000 6.000000 0.000000
21.375000 6.000000 0.000000
21.000000 6.000000 0.000000
20.625000 6.000000 0.000000
20.250000 6.000000 0.000000
19.875000 6.000000 0.000000
19.500000 6.000000 0.000000
19.125000 6.000000 0.000000
18.750000 6.000000 0.000000
18.375000 6.000000 0.000000
18.000000 6.000000 0.000000
17.625000 6.000000 0.000000
17.250000 6.000000 0.000000
16.875000 6.000000 0.000000
16.500000 6.000000 0.000000
16.125000 6.000000 0.000000
15.750000 6.000000 0.000000
15.375000 6.000000 0.000000
15.000000 6.000000 0.000000
14.625000 6.000000 0.000000
14.250000 6.000000 0.000000
13.875000 6.000000 0.000000
13.500000 6.000000 0.000000
13.125000 6.000000 0.000000
12.750000 6.000000 0.000000
12.375000 6.000000 0.000000
12.000000 6.000000 0.000000
11.625000 6.000000 0.000000
11.250000 6.000000 0.000000
10.875000 6.000000 0.000000
10.500000 6.000000 0.000000
10.125000 6.000000 0.000000
9.750000 6.000000 0.000000
9.375000 6.000000 0.000000
9.000000 6.000000 0.000000
8.625000 6.000000 0.000000
8.250000 6.000000 0.000000
7.875000 6.000000 0.000000
7.500000 6.000000 0.000000
7.125000 6.000000 0.000000
6.750000 6.000000 0.000000
6.375000 6.000000 0.000000
6.000000 6.000000 0.000000
5.625000 6.000000 0.000000
5.250000 6.000000 0.000000
4.875000 6.000000 0.000000
4.500000 6.000000 0.000000
4.125000 6.000000 0.000000
3.750000 6.000000 0.000000
3.375000 6.000000 0.000000
3.000000 6.000000 0.000000
2.625000 6.000000 0.000000
2.250000 6.000000 0.000000
1.875000 6.000000 0.000000
1.500000 6.000000 0.000000
1.125000 6.000000 0.000000
0.750000 6.000000 0.000000
0.375000 6.000000 0.000000
0.000000 5.625000 0.000000
0.000000 5.250000 0.000000
0.000000 4.875000 0.000000
0.000000 4.500000 0.000000
0.000000 4.125000 0.000000
0.000000 3.750000 0.000000
0.000000 3.375000 0.000000
0.000000 3.000000 0.000000
0.000000 2.625000 0.000000
0.000000 2.250000 0.000000
0.000000 1.875000 0.000000
0.000000 1.500000 0.000000
0.000000 1.125000 0.000000
0.000000 0.750000 0.000000
0.000000 0.375000 0.000000
0.000000 0.000000 0.000000
0.000000 -0.375000 0.000000
0.000000 -0.750000 0.000000
0.000000 -1.125000 0.000000
0.000000 -1.500000 0.000000
0.000000 -1.875000 0.000000
0.000000 -2.250000 0.000000
0.000000 -2.625000 0.000000
0.000000 -3.000000 0.000000
0.000000 -3.375000 0.000000
0.000000 -3.750000 0.000000
0.000000 -4.125000 0.000000
0.000000 -4.500000 0.000000
0.000000 -4.875000 0.000000
0.000000 -5.250000 0.000000
0.000000 -5.625000 0.000000
32.947857 2.109707 0.000000
34.836417 1.491987 0.000000
26.255782 4.317466 0.000000
2.737708 -3.748812 0.000000
43.831994 0.716159 0.000000
21.730382 2.035152 0.000000
5.169049 0.697699 0.000000
37.022033 5.290044 0.000000
42.401770 -2.326608 0.000000
43.924675 -2.303297 0.000000
18.523983 0.914737 0.000000
15.064715 -2.361881 0.000000
11.330848 -4.552601 0.000000
46.508775 -0.784059 0.000000
38.249423 -3.219219 0.000000
29.696865 3.584325 0.000000
17.000022 -5.314062 0.000000
36.603160 5.290339 0.000000
19.823433 -3.507182 0.000000
31.356642 3.574934 0.000000
1.088804 -2.316345 0.000000
15.659572 0.797905 0.000000
23.291638 -2.557945 0.000000
37.307325 1.388063 0.000000
38.076194 1.451616 0.000000
30.529135 -0.013719 0.000000
36.158710 -4.681093 0.000000
38.238771 0.068124 0.000000
3.739922 1.026139 0.000000
24.101615 -5.313845 0.000000
[...]
POINT_DATA 4165
SCALARS P float 1
LOOKUP_TABLE default
2047.668037
22.226528
-15.257636
-2868.922434
2023.875466
1902.928795
2098.770976
2090.627318
1964.232780
1970.633737
1738.842218
1659.836265
1449.166897
1457.357638
1823.132026
2234.366964
2500.191059
2688.319530
2851.719376
2976.812351
3111.637270
3224.092969
3284.419645
3168.666017
3024.878545
2808.990548
2574.793094
2370.276297
2337.494914
1872.997050
1953.513125
1615.507000
2203.128333
2419.120343
2310.598415
2723.901432
2554.166239
3504.154566
2654.953746
2703.972767
3067.731454
2829.177825
3818.867490
3430.932029
4258.010014
3913.703998
4238.456546
4793.620832
4974.635215
5967.994931
6036.068364
6345.462787
6557.101483
6507.486659
6473.708479
6494.908662
6631.170239
6966.004871
7385.496449
7819.453352
8198.319304
8369.209052
8383.455518
8350.642813
8387.428111
8448.782289
8577.221653
8743.850049
9046.739764
9117.001433
9358.856626
8923.627678
8548.090490
8135.430707
7855.030316
7642.471033
7481.285907
7389.610826
7339.372057
7122.144571
6631.552411
6290.087742
5830.201162
5589.459612
5038.861636
4914.409476
4723.633613
4594.956709
4243.308963
3423.529334
3143.115866
2459.832845
3331.010668
3137.331596
3162.899107
3151.076915
3013.673354
2975.261341
2966.712225
2858.896236
2879.466355
2722.530850
2503.020626
2359.789792
2233.112781
2142.879199
1974.722637
1835.813950
1631.589982
1427.764883
1289.832478
1240.983321
1188.294168
1076.027405
1032.902710
951.989089
839.443874
707.830992
583.814339
470.611184
368.713358
273.429741
192.936120
140.557409
119.314797
94.665444
57.191458
41.061852
14.724112
21.337373
-7.080983
-5.435774
28.451144
22.603051
18.630123
16.130317
24.725634
16.857282
10.119338
16.827422
27.002568
25.882140
16.386410
17.613271
12.754563
13.235565
12.061068
3.911093
-3.006261
-5.316390
9.105729
12.841389
14.686593
23.882920
16.493589
22.089797
67.314280
24.730485
-31.316720
96.148800
15.827644
18.634513
-8.483414
-94.127319
-138.017286
-132.952540
-235.461332
-454.949198
-824.980415
-1332.264924
-1868.854343
-2486.092273
-3089.441768
-3706.714488
-4185.471243
-4570.078439
-4915.031272
-5300.232125
-5694.445958
-6094.045909
-6551.335883
-7085.408865
-7708.508969
-8264.429529
-8626.522358
-8866.416019
-9067.759275
-9348.343270
-9642.485280
-9956.874033
-10330.888317
-10667.679988
-11020.323686
-11270.948467
-11528.025726
-11801.544763
-11896.723734
-12217.520829
-12736.325427
-13286.242811
-13769.918810
-14128.615809
-13726.497234
-13572.999709
-13606.330292
-13324.457922
-13314.383725
-13257.887144
-13538.883461
-13757.314906
-13964.341643
-14162.820642
-13993.134200
-13203.981809
-12630.010619
-12103.402400
-11193.632989
-11071.448777
-10280.774646
-12678.730815
-12118.453907
-11374.081512
-10336.309694
-9466.483134
-8843.657053
-8920.901779
-9064.842570
-9055.941083
-8992.755857
-8570.225253
-8285.965279
-7652.641339
-7188.798667
-6610.400358
-6613.059208
-5611.515420
-5558.259086
-5035.403675
-5122.862282
-4579.721848
-3964.259284
-2602.605392
-2665.750133
-3744.806444
-3492.376596
-2863.559393
-5979.752038
-4416.989661
-6430.166532
-7189.764132
-6262.297291
-6392.307045
-7144.824951
-8043.702987
-8009.688906
-8736.978587
-8925.104262
-10021.073575
-10138.938343
-9792.231554
-9427.181749
-8933.813625
-8554.743449
-8304.914774
-8783.016221
-9250.246257
-10858.525037
-10693.518642
-10416.611255
-10235.421202
-10036.553536
-9445.392448
-8902.719880
-8485.677195
-8722.046846
-8673.489566
-8347.003016
-7980.164176
-7565.693363
-7132.986562
-6795.958225
-6349.069644
-5811.115448
-4794.628585
-4128.825982
-2977.125637
-2025.305043
-2378.235218
-471.401035
80.561966
-688.393583
721.323145
-356.882484
2159.658746
1361.533303
1584.581926
2049.918038
2555.588450
2267.065448
3132.660368
2888.448567
3247.370176
3040.127876
3259.109915
2544.156174
3332.737406
2270.571548
1156.644339
1457.090760
1757.558410
1912.905149
2158.701695
1696.075927
1782.491600
1876.678022
392.441684
2663.934632
-507.650601
2034.125493
-199.204419
-106.477755
-74.466418
145.937535
909.353342
-17.522440
-146.413502
-102.386262
-9611.407731
48.526854
50.710701
-177.444458
292.606503
911.598392
13.363779
103.100760
-180.988612
4972.804842
-9633.805161
44.469106
-58.751636
-804.950914
-114.072332
220.370946
-51.711978
-52.334379
-6.788169
628.552215
-3.804476
-137.716197
7108.514197
-1435.443827
-0.817239
477.476268
46.060865
-530.533770
1993.601689
-493.005707
3065.871713
-439.986237
234.927473
-2714.061366
-63.748362
-232.092855
-2953.266717
-436.541140
254.319565
111.243198
5.167312
-1937.644039
-1119.505722
-137.888127
-2107.743079
-2317.187125
-288.070093
15.456861
101.714922
479.432537
123.737937
1217.975719
157.088282
-96.528953
-1247.214271
351.855548
22.925141
364.910094
-3736.373516
2069.931707
195.076996
-140.219272
-2479.314528
1745.704626
-200.762173
323.254930
-969.715618
-129.395945
96.963364
-28.914561
-106.316170
-13.812379
129.656548
47.567262
188.245991
-3434.785851
492.067663
404.119652
-245.444077
-1854.994349
50.597974
-30.693826
-104.644214
-47.757200
3657.891820
-4050.316687
-47.047550
211.998296
4916.355608
1591.370120
115.735709
14962.198880
5.403880
1960.320352
-11952.481291
-58.114972
-225.800347
-3.422606
215.882998
1618.383767
235.548699
614.357549
661.140720
-55.900716
-303.348333
955.905217
-3859.799345
104.529689
61.070137
-266.209901
241.910050
425.106670
202.595234
38.888382
1253.308653
2243.686004
16.820354
202.981159
-4309.721136
14176.827829
77.505785
-228.959495
1499.460396
-121.224470
-3.246771
-132.147296
199.613312
10.924991
2746.330826
-42.264505
-53.821916
221.078344
-42.931700
991.898414
-2044.335127
-356.418773
-4754.205507
-249.902744
2673.768784
-47.296518
38.579658
643.676456
-209.068705
-63.786230
-128.711499
1413.502503
11347.541724
-125.316927
1127.746468
-6.040907
-707.981808
471.691815
0.690760
11389.580187
-979.328625
-2034.016760
-3.048619
149.610363
-5178.173260
-0.072663
287.980526
12.059908
-48.650386
-108.123268
3414.652639
13679.629863
53.640005
20.262034
14285.954974
-6.662372
-1618.782702
135.638643
355.220866
305.005025
13.591944
63.824716
-507.488245
47.928282
199.906668
16.082013
98.307468
-964.248533
268.137903
28.275736
229.442121
1015.806766
112.216607
-741.973931
102.912106
61.832708
1110.805386
536.445463
-260.642690
-2445.550788
-16.293221
1593.736475
-204.279399
126.867872
583.911799
-3498.922827
-3909.589505
413.959363
-10705.893545
-2097.981192
-906.586816
-162.231364
220.106886
-25.246594
34.594978
-191.627451
121.324098
506.766038
93.206875
-38.501975
373.792918
274.588025
-10.873187
-1720.618214
-116.604105
-87.927820
11.753909
-200.147824
1037.975252
-3151.582509
322.812292
20.884474
345.185986
447.093469
282.307850
17.006159
192.511115
218.708960
15.682894
47.614819
-58.396956
-42.429944
1157.219033
209.043974
9.501082
9.158257
-4853.437934
2396.364717
-1410.917264
14.792229
57.685807
-4.362943
-500.680595
136.103615
-250.617802
211.086189
181.148254
77.643760
69.642536
183.291955
-55.854106
57.085891
-426.819823
675.978275
9.587161
62.594669
-440.644624
-3639.389452
93.893095
-439.017320
-123.254973
121.213494
-96.893111
-253.872930
1799.916058
56.154596
132.237703
-262.610285
70.560730
29.877831
-912.362178
-1655.559534
-3913.212460
188.607761
242.553978
-348.704726
212.200347
34.829135
6.179963
20.183809
630.249607
-7490.329891
2646.791053
-74.762505
-981.659374
15111.112470
-1137.144227
4370.659967
916.399885
98.101641
-4.010294
-10.448078
51.620541
57.455936
6150.698973
-150.307812
6451.063400
590.955275
838.832739
14.421524
-307.479443
317.079070
396.470818
220.403110
-8258.600921
-29.681928
294.288016
-387.383351
63.879338
375.567381
-58.838166
64.310232
2865.549041
30.319167
459.754626
204.368925
-269.078908
-1330.063417
-337.957957
-46.328418
6386.236731
-9.278546
340.469137
-340.934693
-51.214021
-34.175057
6501.190013
222.830118
415.911877
306.115335
1492.594751
165.023284
-7538.987474
6863.019362
268.908550
13.905831
155.090222
1970.894554
-360.107484
4710.975896
6229.828829
6.282389
-314.031652
61.792131
26.030768
-142.954561
3.140914
49.255920
-464.599299
25.293789
-12.342028
70.934519
-197.130526
-204.702002
111.722634
-4479.835594
453.124083
803.066375
-240.327365
-8548.774220
152.940454
509.528119
-114.170814
-357.734350
188.035722
99.820087
59.011277
-661.602212
-218.429373
19.794706
252.711262
-77.717939
10.788505
-662.650358
983.162523
-57.429502
2357.174213
-31.332459
25.475563
-3730.066790
64.925619
995.551562
-311.937831
-778.190758
-8.907708
140.055564
-27.229652
95.161414
193.223909
57.402757
490.607980
37.280270
65.801148
-1543.173628
117.917717
-185.502598
17.771478
55.942844
1883.886356
-188.401414
101.201951
-392.229593
-11.846123
35.962035
15.842897
-5930.888630
-319.080225
52.979947
724.336055
-8076.796186
-235.077862
-1508.355010
190.485788
287.932019
-437.654073
4271.079117
24.887171
-792.474584
146.713288
80.797278
-11368.454302
-211.874535
-425.653365
-268.039100
37.827502
-514.353964
-1137.183765
305.299876
67.839428
0.691508
-293.622016
3220.389541
-104.062288
-441.337613
266.639858
29.574891
-9968.859345
-78.074902
-60.787713
-8.098235
308.082050
50.025110
173.761526
277.890593
9843.459113
-3204.595771
456.371593
262.347662
-436.876440
-309.116616
827.155600
-174.585095
596.354742
-74.831213
-3582.601902
-297.192998
6186.048907
-39.150232
-104.584667
-205.124709
99.150909
-1795.769116
-204.473979
45.224856
256.619244
216.096270
-114.643661
-13.900972
161.919483
30.354367
-7160.014399
218.348044
-37.033772
85.907678
252.464169
-3614.791668
-86.583362
-785.090719
-112.369281
24.497483
113.330322
-46.957199
102.609238
-385.935773
505.926493
-83.242450
-63.839349
-8946.419310
-268.428504
2030.603299
27.368121
178.944723
140.532827
-309.094827
-258.347569
-3619.488987
-799.600638
-64.929265
-2528.041299
480.681382
364.048312
4748.794171
371.510359
46.879221
-989.575726
3225.285618
-91.251918
-736.772472
8523.488096
1143.545334
-20.749500
12.451003
51.151015
3.395343
-171.520626
568.369635
166.956091
-2933.144153
79.931853
1441.875983
-277.916991
106.036030
3173.029144
-1687.048507
-298.744601
184.890107
-694.362517
752.290217
-756.702559
3357.382149
42.558120
-4.124594
-481.754712
46.336030
-119.608170
-53.364925
582.665802
7304.261098
-239.795840
109.286758
-73.057774
-3807.543572
109.236480
133.823760
7559.042146
-27.476733
-2.862785
4.302590
-186.783439
100.195449
-747.577921
142.304286
4050.514610
-411.117456
8857.481071
-24.317865
-556.833601
-1.854500
-18.806762
-191.334136
-369.833192
1242.705382
-358.728933
451.231827
150.561839
-398.085781
-14.831124
-6335.108208
62.173538
693.135785
10492.042883
88.792277
199.569376
-25.860643
0.549868
-21.873191
37.472022
441.873849
-566.497771
3173.115948
-946.389195
-58.513610
-246.227048
-79.648986
174.150332
6539.969421
-3127.914352
4515.714631
210.795597
30.288824
-16.710015
553.192670
-99.602638
466.215132
-91.232169
127.393577
45.194565
-21.412065
3591.385253
24.996765
-341.339243
-26.970263
-40.977115
166.714321
880.336068
478.336057
19.299856
-399.984287
44.242805
518.627312
6864.352097
374.836282
186.318773
-177.756237
421.246991
717.637073
116.434148
6107.067157
-305.232391
416.118807
-141.215154
2114.466485
0.598835
-93.544717
380.779242
-271.691840
500.823380
-236.316218
728.713769
-138.619062
-1741.299682
116.530023
-119.901247
1248.218701
26.166057
-43.625210
576.417950
-7946.701936
-5004.421104
-11.008347
90.010036
-1445.967486
35.239875
102.128104
8559.894647
-408.052417
220.910076
-206.904020
12072.978924
-92.524019
-1921.704186
1659.337851
-189.417722
7033.025557
28.188485
-30.981763
205.683308
201.029866
-339.372554
-32.719198
447.363645
327.958048
-264.317144
1742.632403
-11643.536263
-255.670716
0.910525
3772.569249
5928.996158
102.198792
-7489.518598
764.727445
-104.461011
530.708631
279.741901
-132.725681
-277.372089
184.206171
-3932.928726
37.089269
-0.126451
-116.796320
-119.519860
-616.759461
3754.210309
-238.256832
317.928662
-9.067207
345.827614
761.679591
-11.434647
119.472958
2994.703255
-23.414906
-11553.139198
376.167310
-3283.509293
100.687126
180.871442
177.444554
-2.911451
93.338677
3.127183
145.724118
-111.054039
-1810.003401
491.055585
-83.960534
-2793.292446
1235.545880
1257.296581
-16.602513
-469.528712
3888.526693
-97.234370
-49.316055
621.020619
-33.547518
3.750539
75.729238
-90.804748
-91.732048
19.454788
-4011.733796
-1232.768499
6053.593010
-1996.364900
67.625252
-67.253080
-79.455779
-71.409890
213.264446
-1075.161032
40.422332
-122.554290
206.267607
729.244821
13.612421
38.337864
10.155805
326.897494
-260.649222
-1141.675341
13.069728
106.390393
29.566365
180.794348
345.931216
7615.876087
122.225519
287.520871
364.007080
-469.821221
-139.499465
-1717.710549
-3040.293488
-87.295381
-575.549422
-811.960808
-751.222969
1874.825480
-2428.985629
180.668564
122.737222
-2289.047358
-372.079728
449.681280
-444.926051
-137.647197
225.775711
117.103915
-4170.237732
-122.602737
693.184515
187.768422
1008.380413
-8535.278433
50.543181
-96.598293
-505.239618
-21.634478
-3371.333425
8.278234
338.270705
100.675465
224.073113
296.769694
7429.077556
1279.215158
-284.316555
-370.547026
8.095796
9.802218
-64.351475
168.709054
-25.454371
553.570796
86.739002
-77.322888
77.799862
-1080.766528
848.967938
-5974.928709
-9289.024571
86.298889
6425.040314
-253.802287
-78.584027
-82.589116
-2646.432092
-1131.178749
-41.695108
14627.355630
36.381850
171.179368
-57.890299
-2979.369865
-294.807960
-3192.237764
-111.997396
171.632258
-51.213647
-459.902133
-90.058097
37.845696
101.199392
300.906052
-178.045818
211.564457
-254.298164
594.248931
93.049232
-108.471332
252.041373
-25.949026
-45.435376
-1388.069530
2869.614503
481.637897
706.995971
-1278.538099
349.280305
3.002706
411.111400
-8.127235
-50.361355
-25.526904
3.809919
46.591101
65.835994
4291.078186
-429.882759
-179.199270
488.790748
-8130.577393
2349.125859
-3974.912465
73.493825
-77.599903
1879.640128
40.183538
5.974028
709.029652
-69.420398
-24.162391
-2.679877
-487.493567
928.727425
-135.893076
-3090.190083
1829.548395
152.139761
-196.242705
-220.101086
51.822361
-5.859905
2789.861852
117.833966
42.872261
12391.157848
-422.742491
-8197.180057
-39.366415
-107.800100
1253.042321
746.993699
34.537861
628.346987
737.807383
113.448531
41.092440
-17.670291
-68.136032
62.919117
500.292809
50.189247
5453.132944
1234.517057
98.814302
-408.702926
111.183213
-246.693422
409.424108
-605.549421
-712.643960
-26.128893
815.348096
-56.561523
-395.422107
-883.208532
-1218.598658
138.482098
-496.084612
-280.677168
37.358507
1697.235974
109.864537
253.576621
3742.444459
768.687163
-668.318775
225.086026
100.429234
151.454550
-779.815369
9.474202
-79.953256
-95.083611
203.111994
-24.675950
129.589884
242.405261
4.219331
-1376.662891
422.474636
57.356320
1252.889129
3.044161
-218.620722
239.141636
7.668124
-96.470670
-330.289583
-333.092222
-1627.623427
-103.906264
-23.383859
15.147293
-660.585589
-5331.176062
-76.820516
-159.949009
14066.133874
7471.875270
26.960719
-99.966483
261.906527
168.637285
45.956458
416.392474
1350.502089
-164.895112
-1351.836905
7414.732521
289.059410
4554.881001
-102.430329
114.342659
118.876920
-359.519402
474.760658
57.105959
-38.952452
-200.754556
-31.102278
-130.457376
-50.697717
-79.365607
148.460029
-99.972856
-40.071028
13953.534545
-8691.524069
-9.742251
-267.808903
-11826.132037
-286.991103
130.074831
81.737101
16.782728
10081.833797
-648.782643
-2382.650001
6446.026981
-24.713978
-54.998681
-58.523069
-1092.176646
-150.392976
24.373787
1.378586
-371.006463
-3748.911376
37.229052
-8248.319502
7947.564837
187.616320
-65.192833
16.686927
447.497962
11.047681
158.722518
-41.011124
-642.928935
-6130.172741
115.115255
2042.116218
-910.295400
90.567494
207.785203
5158.948132
265.028692
39.185882
2.429729
-8.143878
-147.109090
286.289939
-562.342177
7.363574
-468.052985
1125.450162
-38.091805
75.499343
22.080937
1933.517958
4449.216470
46.380189
-4405.927335
239.658273
16.667531
380.494094
21.335460
-225.959318
258.634903
1.172301
-4003.085355
103.184650
-8.956025
76.490458
3.973909
46.828941
1210.904611
-183.532814
114.745290
47.560445
65.990715
682.530728
-897.581305
1014.061384
45.420014
616.171599
-144.621097
204.992862
-2263.124557
212.131588
-48.308919
843.066482
-986.606092
-7987.416658
-81.380604
95.635471
-195.166907
67.323251
-97.995799
1986.639271
-20.451215
15.631779
-8529.587777
-159.876329
-16.261181
8.153577
6350.849310
25.182141
118.522901
-864.634551
16.925006
61.727489
2270.907140
-565.118672
14.458353
52.048590
-19.370442
568.417440
2912.668202
14332.392112
2919.502017
68.047060
6933.875058
2544.413019
-854.732821
3.000236
-6.048866
222.842265
2337.315906
1565.895669
-384.417136
18.832959
57.913291
13.312561
-16.441822
20.297603
5005.255097
-134.244912
203.357302
36.752409
132.921961
-971.149929
-115.989112
-8.951017
10361.751351
-4006.016992
-3291.342548
-1091.780438
1764.961015
-291.719874
314.506735
130.327086
135.802617
21.304046
105.604860
2304.812048
-64.557450
244.596698
5217.237009
-326.151739
249.006707
5180.138995
-1044.973805
-48.694310
1044.687199
8099.396736
42.584253
105.381321
14821.070327
-226.185553
-336.229145
327.009667
-474.300744
33.680875
-4172.819089
4495.617691
-4024.353585
-147.052618
120.869271
1477.587104
-63.000742
-214.928883
-359.461758
90.304852
-11360.504109
1859.795390
1625.032366
-33.317326
532.572371
-504.726445
233.022568
289.691899
134.740625
27.188577
-11014.873839
-48.773402
308.683526
-199.173633
-746.525857
-47.275537
19.709116
2808.768058
240.803732
1.063172
50.951910
139.686587
154.185686
-55.644515
5.333388
42.601738
-92.298219
350.661963
4313.945241
-3928.197258
50.059732
-375.330122
2166.463420
1457.990707
-336.828694
414.204412
146.949108
326.524723
-10.191273
-38.817031
7.292754
324.777646
-131.956119
-6516.418847
-27.670175
-10.862226
90.553646
-96.543341
119.928632
-859.326140
64.485782
31.324369
-246.464886
126.370197
457.754619
-9946.981612
187.002755
-30.674080
305.306781
161.954777
-2809.863173
-136.152335
-7337.491194
99.562475
-87.425259
1367.480748
118.964618
6531.675713
83.992384
-24.419819
-109.384083
242.959498
57.657926
-3187.398325
-85.559641
161.265346
163.344456
-773.329322
791.368366
60.431310
-3964.032783
117.905471
-86.980001
96.295673
-7774.233367
173.328068
1434.905839
23.750026
-1495.571395
78.775246
2536.164882
44.788874
-3970.645994
-232.127443
-108.289257
1195.363140
-340.908693
2.870955
261.680419
-4767.788603
-386.305372
-619.928124
-23.696937
-760.353055
-539.363026
47.761967
221.584216
-686.850634
1361.740035
117.665568
-4196.214018
453.018445
3355.109779
-108.030579
26.372665
15.210220
74.797681
375.957508
5.142091
-97.651024
-239.364816
325.848150
7393.393428
-71.321275
-41.571751
150.705370
-27.163444
247.216693
999.560396
39.646939
211.974041
14.986614
146.537024
27.788299
1330.554168
-85.326246
63.483055
-65.601378
72.192181
-45.771583
-165.077229
92.614582
357.022011
-27.670408
52.208360
-3722.807796
245.346401
4.024851
308.898560
-316.437150
-590.238002
38.062357
232.681583
379.061967
-16.466078
2567.731572
-41.788795
-40.591574
-11.874268
2174.894185
-5770.247177
280.569569
372.124523
603.500342
160.821441
-206.896325
-92.657075
502.133013
73.202374
2453.372212
-53.977723
-49.120494
1006.790990
-241.193755
372.536759
39.476083
446.894762
-175.143764
10.778053
-56.515066
106.905488
-42.255048
969.281055
76.232789
315.386842
-454.134174
169.892564
-16.216519
-3700.073439
175.677012
-82.554458
242.278094
-836.871064
130.437365
-39.564866
502.104049
191.931939
-293.903322
-5.030453
70.130173
-224.812907
201.275206
2829.931758
-521.605584
-438.981313
-1000.600290
239.681318
107.889809
-13.258051
-7353.035706
14413.676081
-6.522601
635.381558
635.547705
-902.843758
-118.565230
-253.045087
-362.528586
139.305151
59.515763
47.045221
265.094708
1213.778898
10657.125025
75.917234
15.948904
6839.240709
31.743948
-1805.074459
189.643912
177.480657
-87.517033
-0.793178
-216.875376
243.921001
-187.814080
224.172695
-760.475129
339.725527
115.846968
5.968773
-33.949913
309.637918
629.723927
147.493653
67.998114
37.328282
1892.403818
38.167087