# vtk DataFile Version 2.0
cantilever_quad4_mix
ASCII
DATASET POLYDATA
POINTS 4165 float
0.000000 -6.000000 0.000000
48.000000 -6.000000 0.000000
48.000000 6.000000 0.000000
0.000000 6.000000 0.000000
0.375000 -6.000000 0.000000
0.750000 -6.000000 0.000000
1.125000 -6.000000 0.000000
1.500000 -6.000000 0.000000
1.875000 -6.000000 0.000000
2.250000 -6.000000 0.000000
2.625000 -6.000000 0.000000
3.000000 -6.000000 0.000000
3.375000 -6.000000 0.000000
3.750000 -6.000000 0.000000
4.125000 -6.000000 0.000000
4.500000 -6.000000 0.000000
4.875000 -6.000000 0.000000
5.250000 -6.000000 0.000000
5.625000 -6.000000 0.000000
6.000000 -6.000000 0.000000
6.375000 -6.000000 0.000000
6.750000 -6.000000 0.000000
7.125000 -6.000000 0.000000
7.500000 -6.000000 0.000000
7.875000 -6.000000 0.000000
8.250000 -6.000000 0.000000
8.625000 -6.000000 0.000000
9.000000 -6.000000 0.000000
9.375000 -6.000000 0.000000
9.750000 -6.000000 0.000000
10.125000 -6.000000 0.000000
10.500000 -6.000000 0.000000
10.875000 -6.000000 0.000000
11.250000 -6.000000 0.000000
11.625000 -6.000000 0.000000
12.000000 -6.000000 0.000000
12.375000 -6.000000 0.000000
12.750000 -6.000000 0.000000
13.125000 -6.000000 0.000000
13.500000 -6.000000 0.000000
13.875000 -6.000000 0.000000
14.250000 -6.000000 0.000000
14.625000 -6.000000 0.000000
15.000000 -6.000000 0.000000
15.375000 -6.000000 0.000000
15.750000 -6.000000 0.000000
16.125000 -6.000000 0.000000
16.500000 -6.000000 0.000000
16.875000 -6.000000 0.000000
17.250000 -6.000000 0.000000
17.625000 -6.000000 0.000000
18.000000 -6.000000 0.000000
18.375000 -6.000000 0.000000
18.750000 -6.000000 0.000000
19.125000 -6.000000 0.000000
19.500000 -6.000000 0.000000
19.875000 -6.000000 0.000000
20.250000 -6.000000 0.000000
20.625000 -6.000000 0.000000
21.000000 -6.000000 0.000000
21.375000 -6.000000 0.000000
21.750000 -6.000000 0.000000
22.125000 -6.000000 0.000000
22.500000 -6.000000 0.000000
22.875000 -6.000000 0.000000
23.250000 -6.000000 0.000000
23.625000 -6.000000 0.000000
24.000000 -6.000000 0.000000
24.375000 -6.000000 0.000000
24.750000 -6.000000 0.000000
25.125000 -6.000000 0.000000
25.500000 -6.000000 0.000000
25.875000 -6.000000 0.000000
26.250000 -6.000000 0.000000
26.625000 -6.000000 0.000000
27.000000 -6.000000 0.000000
27.375000 -6.000000 0.000000
27.750000 -6.000000 0.000000
28.125000 -6.000000 0.000000
28.500000 -6.000000 0.000000
28.875000 -6.000000 0.000000
29.250000 -6.000000 0.000000
29.625000 -6.000000 0.000000
30.000000 -6.000000 0.000000
30.375000 -6.000000 0.000000
30.750000 -6.000000 0.000000
31.125000 -6.000000 0.000000
31.500000 -6.000000 0.000000
31.875000 -6.000000 0.000000
32.250000 -6.000000 0.000000
32.625000 -6.000000 0.000000
33.000000 -6.000000 0.000000
33.375000 -6.000000 0.000000
33.750000 -6.000000 0.000000
34.125000 -6.000000 0.000000
34.500000 -6.000000 0.000000
34.875000 -6.000000 0.000000
35.250000 -6.000000 0.000000
35.625000 -6.000000 0.000000
36.000000 -6.000000 0.000000
36.375000 -6.000000 0.000000
36.750000 -6.000000 0.000000
37.125000 -6.000000 0.000000
37.500000 -6.000000 0.000000
37.875000 -6.000000 0.000000
38.250000 -6.000000 0.000000
38.625000 -6.000000 0.000000
39.000000 -6.000000 0.000000
39.375000 -6.000000 0.000000
39.750000 -6.000000 0.000000
40.125000 -6.000000 0.000000
40.500000 -6.000000 0.000000
40.875000 -6.000000 0.000000
41.250000 -6.000000 0.000000
41.625000 -6.000000 0.000000
42.000000 -6.000000 0.000000
42.375000 -6.000000 0.000000
42.750000 -6.000000 0.000000
43.125000 -6.000000 0.000000
43.500000 -6.000000 0.000000
43.875000 -6.000000 0.000000
44.250000 -6.000000 0.000000
44.625000 -6.000000 0.000000
45.000000 -6.000000 0.000000
45.375000 -6.000000 0.000000
45.750000 -6.000000 0.000000
46.125000 -6.000000 0.000000
46.500000 -6.000000 0.000000
46.875000 -6.000000 0.000000
47.250000 -6.000000 0.000000
47.625000 -6.000000 0.000000
48.000000 -5.625000 0.000000
48.000000 -5.250000 0.000000
48.000000 -4.875000 0.000000
48.000000 -4.500000 0.000000
48.000000 -4.125000 0.000000
48.000000 -3.750000 0.000000
48.000000 -3.375000 0.000000
48.000000 -3.000000 0.000000
48.000000 -2.625000 0.000000
48.000000 -2.250000 0.000000
48.000000 -1.875000 0.000000
48.000000 -1.500000 0.000000
48.000000 -1.125000 0.000000
48.000000 -0.750000 0.000000
48.000000 -0.375000 0.000000
48.000000 -0.000000 0.000000
48.000000 0.375000 0.000000
48.000000 0.750000 0.000000
48.000000 1.125000 0.000000
48.000000 1.500000 0.000000
48.000000 1.875000 0.000000
48.000000 2.250000 0.000000
48.000000 2.625000 0.000000
48.000000 3.000000 0.000000
48.000000 3.375000 0.000000
48.000000 3.750000 0.000000
48.000000 4.125000 0.000000
48.000000 4.500000 0.000000
48.000000 4.875000 0.000000
48.000000 5.250000 0.000000
48.000000 5.625000 0.000000
47.625000 6.000000 0.000000
47.250000 6.000000 0.000000
46.875000 6.000000 0.000000
46.500000 6.000000 0.000000
46.125000 6.000000 0.000000
45.750000 6.000000 0.000000
45.375000 6.000000 0.000000
45.000000 6.000000 0.000000
44.625000 6.000000 0.000000
44.250000 6.000000 0.000000
43.875000 6.000000 0.000000
43.500000 6.000000 0.000000
43.125000 6.000000 0.000000
42.750000 6.000000 0.000000
42.375000 6.000000 0.000000
42.000000 6.000000 0.000000
41.625000 6.000000 0.000000
41.250000 6.000000 0.000000
40.875000 6.000000 0.000000
40.500000 6.000000 0.000000
40.125000 6.000000 0.000000
39.750000 6.000000 0.000000
39.375000 6.000000 0.000000
39.000000 6.000000 0.000000
38.625000 6.000000 0.000000
38.250000 6.000000 0.000000
37.875000 6.000000 0.000000
37.500000 6.000000 0.000000
37.125000 6.000000 0.000000
36.750000 6.000000 0.000000
36.375000 6.000000 0.000000
36.000000 6.000000 0.000000
35.625000 6.000000 0.000000
35.250000 6.000000 0.000000
34.875000 6.000000 0.000000
34.500000 6.000000 0.000000
34.125000 6.000000 0.000000
33.750000 6.000000 0.000000
33.375000 6.000000 0.000000
33.000000 6.000000 0.000000
32.625000 6.000000 0.000000
32.250000 6.000000 0.000000
31.875000 6.000000 0.000000
31.500000 6.000000 0.000000
31.125000 6.000000 0.000000
30.750000 6.000000 0.000000
30.375000 6.000000 0.000000
30.000000 6.000000 0.000000
29.625000 6.000000 0.000000
29.250000 6.000000 0.000000
28.875000 6.000000 0.000000
28.500000 6.000000 0.000000
28.125000 6.000000 0.000000
27.750000 6.000000 0.000000
27.375000 6.000000 0.000000
27.000000 6.000000 0.000000
26.625000 6.000000 0.000000
26.250000 6.000000 0.000000
25.875000 6.000000 0.000000
25.500000 6.000000 0.000000
25.125000 6.000000 0.000000
24.750000 6.000000 0.000000
24.375000 6.000000 0.000000
24.000000 6.000000 0.000000
23.625000 6.000000 0.000000
23.250000 6.000000 0.000000
22.875000 6.000000 0.000000
22.500000 6.000000 0.000000
22.125000 6.000000 0.000000
21.750000 6.000000 0.000000
21.375000 6.000000 0.000000
21.000000 6.000000 0.000000
20.625000 6.000000 0.000000
20.250000 6.000000 0.000000
19.875000 6.000000 0.000000
19.500000 6.000000 0.000000
19.125000 6.000000 0.000000
18.750000 6.000000 0.000000
18.375000 6.000000 0.000000
18.000000 6.000000 0.000000
17.625000 6.000000 0.000000
17.250000 6.000000 0.000000
16.875000 6.000000 0.000000
16.500000 6.000000 0.000000
16.125000 6.000000 0.000000
15.750000 6.000000 0.000000
15.375000 6.000000 0.000000
15.000000 6.000000 0.000000
14.625000 6.000000 0.000000
14.250000 6.000000 0.000000
13.875000 6.000000 0.000000
13.500000 6.000000 0.000000
13.125000 6.000000 0.000000
12.750000 6.000000 0.000000
12.375000 6.000000 0.000000
12.000000 6.000000 0.000000
11.625000 6.000000 0.000000
11.250000 6.000000 0.000000
10.875000 6.000000 0.000000
10.500000 6.000000 0.000000
10.125000 6.000000 0.000000
9.750000 6.000000 0.000000
9.375000 6.000000 0.000000
9.000000 6.000000 0.000000
8.625000 6.000000 0.000000
8.250000 6.000000 0.000000
7.875000 6.000000 0.000000
7.500000 6.000000 0.000000
7.125000 6.000000 0.000000
6.750000 6.000000 0.000000
6.375000 6.000000 0.000000
6.000000 6.000000 0.000000
5.625000 6.000000 0.000000
5.250000 6.000000 0.000000
4.875000 6.000000 0.000000
4.500000 6.000000 0.000000
4.125000 6.000000 0.000000
3.750000 6.000000 0.000000
3.375000 6.000000 0.000000
3.000000 6.000000 0.000000
2.625000 6.000000 0.000000
2.250000 6.000000 0.000000
1.875000 6.000000 0.000000
1.500000 6.000000 0.000000
1.125000 6.000000 0.000000
0.750000 6.000000 0.000000
0.375000 6.000000 0.000000
0.000000 5.625000 0.000000
0.000000 5.250000 0.000000
0.000000 4.875000 0.000000
0.000000 4.500000 0.000000
0.000000 4.125000 0.000000
0.000000 3.750000 0.000000
0.000000 3.375000 0.000000
0.000000 3.000000 0.000000
0.000000 2.625000 0.000000
0.000000 2.250000 0.000000
0.000000 1.875000 0.000000
0.000000 1.500000 0.000000
0.000000 1.125000 0.000000
0.000000 0.750000 0.000000
0.000000 0.375000 0.000000
0.000000 0.000000 0.000000
0.000000 -0.375000 0.000000
0.000000 -0.750000 0.000000
0.000000 -1.125000 0.000000
0.000000 -1.500000 0.000000
0.000000 -1.875000 0.000000
0.000000 -2.250000 0.000000
0.000000 -2.625000 0.000000
0.000000 -3.000000 0.000000
0.000000 -3.375000 0.000000
0.000000 -3.750000 0.000000
0.000000 -4.125000 0.000000
0.000000 -4.500000 0.000000
0.000000 -4.875000 0.000000
0.000000 -5.250000 0.000000
0.000000 -5.625000 0.000000
32.947857 2.109707 0.000000
34.836417 1.491987 0.000000
26.255782 4.317466 0.000000
2.737708 -3.748812 0.000000
43.831994 0.716159 0.000000
21.730382 2.035152 0.000000
5.169049 0.697699 0.000000
37.022033 5.290044 0.000000
42.401770 -2.326608 0.000000
43.924675 -2.303297 0.000000
18.523983 0.914737 0.000000
15.064715 -2.361881 0.000000
11.330848 -4.552601 0.000000
46.508775 -0.784059 0.000000
38.249423 -3.219219 0.000000
29.696865 3.584325 0.000000
17.000022 -5.314062 0.000000
36.603160 5.290339 0.000000
19.823433 -3.507182 0.000000
31.356642 3.574934 0.000000
1.088804 -2.316345 0.000000
15.659572 0.797905 0.000000
23.291638 -2.557945 0.000000
37.307325 1.388063 0.000000
38.076194 1.451616 0.000000
30.529135 -0.013719 0.000000
36.158710 -4.681093 0.000000
38.238771 0.068124 0.000000
3.739922 1.026139 0.000000
24.101615 -5.313845 0.000000
[...]
POINT_DATA 4165
SCALARS P float 1
LOOKUP_TABLE default
5957.366839
-14.991732
-2.515989
-966.689054
4166.311750
2241.412524
521.144159
-44.405355
-75.968841
677.591901
747.573195
600.270373
1042.390083
1249.615278
395.070410
-683.600154
-1734.357343
-2833.788381
-3771.825823
-4584.061603
-5309.811177
-5722.932128
-5453.965526
-4659.211304
-3895.974249
-3048.987008
-2185.637387
-1348.212569
-534.357729
360.675300
633.227915
723.375403
524.748532
287.346763
51.687752
-66.213766
-96.444369
96.205267
418.371989
608.471466
770.620580
949.240174
1125.568251
949.101122
168.074624
-849.920036
-3326.336311
-6705.187558
-11657.159084
-18987.456107
-26717.373786
-33683.310462
-39815.466116
-45443.232733
-51741.808923
-57769.853159
-63919.706410
-70070.860804
-77010.477704
-84229.994230
-89714.753063
-91741.892161
-92449.335059
-93069.339710
-93999.863524
-94565.481678
-95240.560999
-97023.963321
-99746.870768
-101092.753677
-98411.014616
-90253.335133
-85224.815630
-80607.640840
-77122.258914
-73672.376056
-70597.109325
-66928.646577
-62110.470281
-53588.244682
-44730.468955
-37857.368878
-31234.172579
-25451.947038
-19499.269558
-14688.812225
-9924.879044
-4469.981320
-1993.877252
-890.408567
-271.190079
-404.207374
-1281.604444
-3103.964927
-4634.411266
-6054.048174
-7382.792625
-8565.548355
-10196.648397
-11870.407804
-13758.534384
-14133.443433
-13910.262895
-13972.356079
-13877.514129
-13970.518268
-13768.626504
-13121.087485
-11633.293515
-10243.140375
-9407.390634
-9149.919476
-9133.013247
-9336.437144
-9442.398831
-9706.928751
-8671.968064
-7402.503794
-6384.266744
-5255.660657
-3998.911439
-2702.003240
-1491.865062
-463.218761
-2.337962
74.025988
26.885066
41.307483
-11.432812
-52.677857
-20.416344
-16.555989
-39.061918
-6.449767
-4.978384
-0.440474
-4.486116
2.579523
-17.576342
-32.868202
-46.265194
-67.432396
-57.650080
-113.740952
-190.953595
-282.475025
-354.100689
-405.472366
-404.864061
-393.753251
-244.632766
-150.788121
-49.008903
-13.531554
29.028834
5.100258
27.889469
25.249375
13.790700
22.089171
-0.436730
3.879538
-10.311417
-22.502956
-33.526756
-23.742563
137.425364
76.546964
-1041.162235
-4095.467942
-8647.538027
-14829.120323
-22286.354748
-30656.462682
-37764.425668
-43936.626339
-49830.083403
-56012.606923
-61662.903562
-67724.215243
-74266.674417
-81678.434746
-89319.564632
-95606.627800
-98656.770242
-100247.030796
-101753.776796
-103706.780408
-105160.690461
-106839.608882
-109108.247491
-111869.988728
-113961.593059
-113019.688647
-109931.133298
-106053.374092
-101204.774712
-99018.852942
-96427.616768
-96518.062115
-96437.461916
-96661.141669
-91799.308389
-87000.338128
-82232.710323
-77656.550093
-73351.412086
-69095.336362
-65275.652042
-62042.951771
-58271.115811
-54156.480710
-45875.654998
-38077.632561
-32423.318243
-27022.985737
-22341.455266
-17912.014235
-14704.047473
-12997.683397
-12623.187842
-10856.826578
-10125.921946
-9823.429059
-9544.482991
-9535.061976
-9232.727714
-9242.592173
-9174.794764
-9069.388914
-8780.894196
-8261.851986
-7551.797717
-6613.041541
-5654.491504
-4232.207437
-3528.855868
-2603.136905
-2051.381865
-1515.886928
-1189.359506
-851.206571
-732.684038
-624.296245
-684.305141
-662.126590
-906.996021
-1037.838878
-1951.728467
-2711.009799
-3742.405087
-4952.561170
-7003.460631
-9131.476539
-11452.752833
-14193.062768
-17126.440446
-20842.471245
-22826.085878
-23600.267587
-24808.338017
-25788.671984
-26677.257296
-27379.649753
-28590.199496
-29784.700316
-32347.335297
-30946.087727
-29326.813195
-29247.797972
-28738.712846
-28478.163479
-28524.852558
-28869.763152
-28992.161090
-27892.198279
-25816.186828
-23948.413166
-21920.914554
-19734.418934
-17583.350637
-15068.142720
-11714.704353
-8150.199092
-5389.416997
-2890.249418
-1414.074826
-858.257985
-1167.243713
-698.941398
-2274.702597
2536.499534
4427.130942
17350.806390
9120.381864
16813.427116
22283.155983
30610.460636
49159.007035
80209.244881
115196.642960
159295.810662
166893.578956
142793.076568
97020.299201
58499.130565
17836.128510
4385.669904
15900.100909
31385.550103
41994.541847
36561.503618
24428.985244
12846.406986
6032.762308
88.788018
4278.893032
-2732.116914
4894.497844
-3612.495183
-80.451010
-50.517525
-275.759306
1326.232476
273.726538
-160.238354
-90.247078
-86263.354895
78.081638
-7.688317
-106.912211
196.103962
456.504954
-52.008814
517.791955
-187.274206
-12797.262644
-85222.761194
1870.539388
7.521255
-23661.531718
-148.202454
139.347249
-74.364521
-90.480127
172.085360
-997.364425
-2.231464
-330.816555
-63378.091291
-37537.926287
69.419784
481.107221
99.679761
-504.962275
2206.784379
-432.816428
29594.383115
287.546990
265.129441
288.922394
12.884174
69.094896
10473.083617
-139.478449
176.948982
383.633169
25.467038
3380.325189
4191.612540
-475.482768
-4636.703347
14439.035907
-276.308085
-283.131196
80.580328
512.158328
341.157262
511.690536
313.323659
317.810184
-438.922797
564.160537
-12.522290
403.526383
31123.085161
-525.651761
184.420467
-213.797909
-2592.925297
13326.555314
-221.100822
339.407989
-4618.191312
-118.979859
213.344048
-25.120048
-63.231452
-141.355811
-625.678370
136.219390
762.374971
-16904.997528
335.120857
1500.533295
-230.220664
-632.384707
6.866407
-72.371767
1482.922891
-9.777159
33607.511713
-29890.986994
-98.060307
217.567257
11171.036713
11374.663496
-83.513408
55681.191737
-7.628484
-347.504968
-70564.989075
-56.920520
-203.576612
62.498719
269.676033
13050.755677
255.093347
451.134883
-498.377519
-2.767946
-312.394468
458.435806
39490.677442
-167.731130
43.114523
-217.113708
337.258587
-4263.832546
183.451853
51.611973
711.238636
-6583.051366
-30.678297
361.472364
-36407.163162
84696.672024
83.308798
-286.034172
-129.756769
637.075279
-9.229480
-165.275624
261.400754
5.027659
-2819.617246
-233.039596
50.565378
223.058599
-7.310495
-139.672329
-1236.723473
-222.721531
3783.618596
-618.619995
102644.161124
-260.962891
69.079689
92.589314
1311.300587
-251.365093
-125.388766
4140.784761
17710.309430
-129.907212
155.136696
74.403002
6133.478942
589.664308
-33.712115
109478.646019
-4661.718358
14162.701628
-57.745626
960.931405
-8809.192711
-56.440986
338.714507
616.987667
-12.794857
-2.167711
687.692845
33258.228529
-23.383011
10.293880
80530.935820
27.847955
12947.910438
44.851417
351.814729
355.729630
-61.012147
-71.873961
871.797705
8.924863
741.250146
-37.742986
70.903836
-5944.172528
63.467074
161.109236
254.849186
438.984478
69.301229
-339.404358
96.013568
152.429960
-3627.005086
-784.929338
-137.630548
-39868.967185
6.446122
-9370.842438
-354.065449
135.589993
2697.173486
-15703.522613
32921.884218
-118.939289
-59116.521877
850.530313
-1014.500357
-202.195045
15.518246
-1.757612
-48.920300
-223.925472
142.065990
1935.514727
412.472325
18.654548
441.541771
465.819191
593.534306
1502.878660
-131.261001
-74.174066
62.886323
423.205489
9315.962563
-2063.696027
380.278071
-232.296781
386.052345
369.642976
272.739522
25.086565
31.986457
256.216294
-11.101191
5.976341
-399.908807
-102.419084
402.759125
244.614582
570.811408
-53.919541
-1007.246767
117.655774
-32089.136562
-62.837615
43.354592
1.145604
-422.287682
132.826886
-197.434472
213.903411
221.687285
42.343890
225.100299
212.618023
-156.313197
189.380050
-385.260447
-3612.584323
-22.839230
158.222143
-167.067026
-3382.354773
58.514644
-327.691846
-135.247675
58.697619
2135.709279
4563.030597
1139.130463
37.948814
110.056198
-490.142359
15.430732
-11.297303
-10467.280421
-764.967299
-30337.468931
-84.735996
278.789162
-416.752124
424.580998
28.655569
-94.752864
56.151691
-5548.675825
-11980.252465
-5541.850879
-49.092617
-393.306848
49527.139218
-287.841386
43169.493039
2538.283180
82.190971
-100.548379
-82.023024
175.916129
52.911038
1865.266245
-124.171687
-50197.245613
29.402500
2609.790719
74.278980
1540.978160
317.197366
447.646541
191.955623
93003.627028
220.413014
2425.020887
380.363769
-11.675482
1077.110487
-43.731583
408.658114
-685.241581
282.462890
587.395522
237.989907
-842.234558
-936.175364
-300.626866
-85.353413
-55530.108441
851.037622
164.861795
-246.080161
-132.674632
-10.812364
-57805.202214
233.492485
-171.365274
156.661785
1022.481013
152.397672
83684.799615
34829.552579
1053.462500
-22.437077
185.897011
2061.302375
-464.792225
4027.294215
55742.521373
12.462820
-155.923089
35.565863
-42.015905
-3.861616
13.677508
828.611533
-496.701732
-141.038694
242.622190
1080.513997
-174.992538
-205.412174
5487.926761
-545.655028
-100.628678
-2110.867789
3609.693709
-17530.827456
1050.041997
420.108320
-94.496982
-362.588036
118.359466
20.443316
13.084374
-8093.790755
-9808.334211
1754.962999
532.049108
-51.657316
-21.720350
7201.540903
570.047468
-54.739709
-12486.023077
-41.981122
13.865530
-2562.534476
135.955592
595.095921
-341.455627
5909.903829
-21.823301
326.006613
-7.685537
90.050623
191.298358
42.687091
580.031104
19.640001
98.282403
-587.570234
-583.708360
-215.230087
1.228555
-106.417512
-1292.170184
-255.771507
-117.430048
-374.395469
-35.894243
78.019260
42.765120
33342.093710
-196.234951
140.718251
-1642.921655
77789.867894
-247.265597
-835.095230
141.843566
306.966574
1809.036080
8552.107375
98.770059
9616.231532
572.155528
72.298239
-38997.604309
-258.818282
-533.749564
-225.776890
41.911112
-242.284108
-2409.361035
1009.842795
147.457672
0.851675
-459.855350
-22666.410861
-86.841084
418.986698
367.949356
52.567491
-12114.372513
-90.663180
-85.782320
15.855430
280.953203
-1465.549884
232.432535
1165.937637
19583.445805
24531.670341
70.289593
275.316570
-364.061249
-273.501888
586.163993
-200.394166
286.512803
-34.444880
-143187.935266
-244.491218
32362.736397
14.523567
1401.975706
-364.616353
72.302712
-493.943341
3391.227864
-6.270573
386.099400
175.793374
-3.093680
-39.904801
222.752728
73.562368
-69993.097490
1539.615788
-69.178110
128.835956
171.636533
-13461.038204
933.691847
-230.084652
-1044.653830
10.023921
28.648084
-19.921230
-212.879666
-1704.200847
478.190482
-199.330397
-137.763964
-84229.186020
2240.210927
6575.350472
2276.944026
-134.173394
912.142885
-597.588328
2136.403580
-32287.229901
-502.690951
-124.299048
-3086.625121
1018.399026
390.105180
11419.880744
932.312759
118.145197
-4552.719665
28649.213558
-88.974870
-1194.290290
15548.409171
572.770892
-10.839071
444.169006
-71.994793
50.652725
-125.018066
2206.393744
189.908694
-12037.347149
9.963737
-8577.062813
-282.655668
84.953186
-21167.904601
-6451.590684
265.797912
887.393570
7979.212386
-1918.529162
-23975.347293
1905.952243
59.014705
-24.555871
-354.085929
40.586374
55.473003
2901.130433
44.012242
22938.754477
-200.850052
82.476767
-178.794820
-29625.447902
96.389575
72.795395
45395.719756
36.523997
-10.655241
92.387789
-472.862893
506.714923
967.943275
129.876378
37481.049949
-575.067542
8454.534821
-68.431202
3207.018801
-10.247341
-25.231818
-163.628289
2348.902228
-5091.967795
-359.105704
403.375178
466.416734
-979.754031
-217.154016
-63282.190454
-173.792140
441.565769
28267.023526
48.847361
250.642571
-129.825989
-3.717804
20.381229
8.473538
1253.908557
109.457010
1917.840730
-470.828366
-119.938453
-87.810198
-143.521856
156.877840
55410.444229
-2500.843517
15022.768829
1.384884
-738.608236
8.792364
-577.135092
-599.088911
538.179878
-155.955476
170.473125
39.665165
-10.440035
4641.808341
20.109056
-519.849537
7.839292
-21.895131
4507.898725
549.084524
-454.022282
-45.249109
-232.893665
23.593094
620.828478
20967.342423
400.464290
237.880065
-187.391379
-198.492889
437.356589
128.492869
14833.125223
-255.363538
423.983960
-174.962427
349.760636
46.569392
-21.474851
-367.656901
-225.590429
-410.446923
3627.980920
1565.969966
-104.119801
-11434.382430
169.320425
1052.211022
14116.522197
143.025049
-281.018132
502.568525
-23343.483826
-1377.976078
-12.424599
493.542354
920.621151
96.117563
93.173607
8264.142256
-417.291249
170.324027
-309.634900
22109.952045
59.244378
6712.336860
13599.863777
-182.335138
-63274.016417
27.873634
-135.064417
-1882.153739
-1590.713107
256.576920
22.290933
-26.344734
1154.196605
-149.403420
-3637.964530
-51965.001342
-401.764389
-48.290768
6380.146408
55051.759013
285.371730
-7123.304341
10566.640167
-166.496573
475.270139
151.690115
-126.447408
-84.400118
298.780648
-9102.324495
46.992247
-5.188086
335.392211
130.918875
1072.236579
5591.283503
-1172.095594
-3042.876297
50.119594
333.815237
-319.288659
-205.010188
-3.723803
-20951.381965
-129.747027
-54997.006758
-126.318912
-5069.353718
120.383573
122.243219
186.753679
2135.200858
-5.770356
-136.077714
155.377137
61.391186
-12694.726009
-668.952012
-296.022758
-3996.697687
5037.766218
57.507660
295.607933
-318.999363
11416.131964
-231.762586
137.424057
493.899930
-108.706217
-15.248508
155.972490
-81.769272
-176.699639
-2.955674
-15182.330842
-6475.410951
4911.083994
-69798.064520
-72.031878
570.019195
-48.353261
37.683597
-207.636528
10994.296987
-58.360046
-3.940356
-449.503530
2220.338935
44.126063
0.872567
35.693696
2001.731074
-259.390235
-893.158085
-95.600493
221.925874
30.975447
102.410946
120.019348
26065.524385
178.995829
-204.741856
524.805883
-213.265454
-214.146593
-56298.275185
5716.572150
-117.921385
-597.247026
-745.098883
-889.540898
-8187.860190
1186.835138
264.361758
105.716993
-2983.482262
-459.796221
-274.850938
-396.320408
-130.137362
229.801436
168.864359
-10224.692405
-3630.110833
-441.947080
176.813394
4039.301185
93839.544377
473.420934
-151.195075
7066.070464
-19.918424
-2824.752274
-29.214756
294.340169
75.028767
1612.563429
292.781449
-69300.129981
13858.050336
-222.228059
-117.513474
74.058089
83.958280
9.000021
147.188801
-21.844380
5956.014607
-49.290082
-61.751355
161.948081
-381.079370
21056.930464
37196.399969
97953.199687
328.322596
6006.040192
-329.550641
-32.544637
196.209929
-523.292580
-760.045587
72.476046
58959.699697
48.581095
396.495239
-32.148410
-713.524076
2549.725292
-1444.503305
-91.380312
192.671056
-128.889951
-592.127678
-2.222638
24.289632
123.597110
270.540068
-159.749210
238.057423
2031.707974
503.372786
199.151182
944.716644
254.642470
-66.337680
900.199398
-695.331425
466.770194
69.974948
389.049644
-4406.001387
385.392452
34.555383
455.541755
142.843038
-302.456078
-24.343797
1.648564
62.844230
-130.298932
500.616010
-453.295616
-154.099937
-324.360492
-6941.970069
356.085056
41667.067073
-44.161752
3.297649
-7588.751715
43.607236
82.580903
-3312.607425
13.737801
93.935526
-37.751993
4605.191944
-638.152356
-1000.345079
-2344.650621
-5391.724735
62.783568
-81.875189
-35.299492
62.106776
-59.902975
-19091.790745
146.820427
-65.557280
104771.426894
-362.338682
91718.715210
-44.105219
-169.994450
3341.409946
285.943955
-99.711153
-270.892860
805.688453
227.207802
336.629692
-108.328660
-43.547995
22.322719
454.790261
24.033737
-28663.696609
1091.021567
49.690314
-210.983356
124.021408
-236.094762
487.033184
-981.711938
3031.922411
498.922531
-6679.129909
3.323735
630.569656
-1159.055865
12407.147111
-171.760066
-916.557781
809.343438
90.270431
5678.269990
-398.438247
319.869944
18.220722
2352.157855
-488.872701
136.397027
22.512991
316.370861
-2569.317886
2.276345
-140.182233
-224.162643
256.904353
103.225081
822.053960
331.956851
-88.403007
1538.184329
-1857.181202
-111.078863
657.317102
-443.184785
-207.412456
176.162248
-15.850612
-123.791311
-265.200609
-152.098832
747.571742
-403.311504
-75.436510
-17.869408
497.395331
-49854.110099
-152.100650
2274.940688
72297.850457
-58123.338769
33.949048
59.247854
-1782.421554
207.578120
77.438286
-21.321204
4310.600899
2294.205225
11129.683695
-59967.238929
136.590763
-11615.803556
-119.328066
111.317802
57.197186
-212.337316
428.067443
45.948582
1.168763
-810.949916
-79.255638
910.469801
-98.273841
-181.839549
-174.576941
-100.843522
-3.448532
96460.402765
94324.163374
50.191997
-839.261424
-66311.585706
3490.497109
137.873444
56.015729
-1.734325
27721.672882
-762.905632
-11717.896603
55850.483984
22.452471
-77.969761
-63.958442
1379.231571
-152.672362
23.615708
115.166913
-400.370800
-168496.695897
61.438010
-24382.079885
7505.279284
168.673598
-63.710131
115.294485
-21.437488
2.121391
160.806077
348.792647
3104.605055
44271.661165
89.310240
-105.536717
-440.520713
998.267176
670.428464
17312.988786
262.163532
88.467892
357.184966
68.236141
2381.956910
-18.492588
-259.169293
637.049304
-313.265268
-316.464178
-89.179142
86.580861
21.874973
-9754.966466
13888.698628
-23.903815
12612.167322
313.718949
-38.111003
435.157460
34.091788
-308.167998
174.467762
-26.239169
7568.488543
-188.067604
161.895524
86.323922
-59.453435
74.091393
515.645548
-178.730521
-316.901403
91.300722
163.835897
-1339.953209
389.201181
333.972591
50.669369
-2576.194718
-188.245371
648.831702
-488.966915
39.061218
-44.673116
2203.996527
3029.428618
88258.420451
-116.966845
99.402928
-534.433380
659.034282
-208.475848
14020.676374
-178.184452
-47.869169
82542.408441
-47.907708
-28.357447
-110.722877
18545.512922
120.438274
83.535489
-2040.374268
-192.422540
370.976885
21562.799494
-641.153131
-21.720648
-300.819053
153.499102
464.428642
57741.692803
63238.079468
-16139.487034
114.226795
30314.781704
1045.395878
-14107.398871
-75.387062
-27.915788
144.540777
-1627.969813
16042.303412
-469.967972
6.694263
-378.205753
-6.740661
-101.120438
-27.538065
-18590.441970
75.598584
289.155747
97.636162
126.207635
-6079.928962
160.925689
-48.400024
103930.123575
-25889.400423
27311.080813
-3170.858923
12527.102549
-305.126952
346.156759
258.963759
96.548745
21.895372
269.786447
15832.527278
-81.196158
201.456292
12959.265187
-280.959495
-1940.244021
-24595.694183
-263.052257
-565.508847
1067.151269
25394.732911
40.813445
-52.865817
90120.575704
-154.934492
-227.218616
155.454212
-435.242605
5.306873
-30628.801018
1768.069373
-19344.619847
-133.413771
100.017217
6819.135097
20.852618
13.534144
-178.987561
64.058801
-79693.486881
-344.473290
-282.941692
-1.688766
332.267790
-842.152186
310.008451
208.421436
124.915981
-41.028537
-9271.764709
-69.565346
1113.593033
-218.162356
-818.460412
-53.152055
30.156229
-4075.103560
139.996973
70.035097
220.776293
655.869395
162.181236
-259.233381
11.550397
52.310372
-90.700255
428.359390
3453.904140
-10921.864564
54.599455
-397.509071
-215.547594
-500.835778
4239.208650
24.581552
276.520951
300.828856
-108.468590
-5.084208
431.307086
496.105055
-253.921303
70318.917237
-69.617473
51.399027
-195.956776
-158.729536
136.552454
5178.753025
22.683578
44.163009
-140.879548
-808.714344
442.725834
-78869.271148
-5671.530468
-136.888530
0.053562
203.073416
-6512.072808
-140.939965
-9907.555469
177.717477
-86.988187
1002.780760
211.853088
12695.326832
205.844150
-16.110620
-219.426918
162.452650
173.107993
-26053.105935
-92.094106
153.421197
438.665039
562.074119
1016.167355
43.935016
-17109.452046
123.783901
-476.196812
117.451581
-22602.476495
172.673536
-730.397688
28.262306
-637.875025
135.233743
-2548.659994
37.585870
-599.650416
-280.889754
-48.808529
-7463.631345
-244.432834
-20.528505
311.390108
-11755.457511
-365.331827
-3541.953426
-164.796692
-286.588824
-506.888721
56.195982
219.962352
-390.450485
870.937231
102.243384
-31272.711781
2633.643449
8652.848127
-1672.429212
51.772456
319.830687
38.877234
552.795337
-52.313413
-125.975407
595.361635
367.119052
40581.832884
-72.093554
-36.806983
63.438248
-24.758607
195.092862
-215.345979
46.065024
117.658514
64.726996
198.032810
20.349271
11.976987
-116.884827
165.181624
1136.901462
98.758857
-51.274686
-176.965640
289.793857
-672.221788
-32.368469
-464.621591
-10696.578193
189.772649
-5.339105
198.351469
-242.958765
-727.005928
9.311789
1617.664595
488.958326
12.180273
66437.751142
3.853971
-151.288345
64.377767
1768.305275
-55037.042838
192.348643
4582.643979
-1507.205863
188.194153
-175.817266
398.212671
-534.069252
1368.051526
-10180.341579
-9.983728
1103.223091
642.574346
-848.661093
-1185.631121
29.489300
472.419618
-6.317641
18.627716
355.497347
106.537661
822.484803
384.553277
183.135662
323.329136
-691.125763
157.806484
-213.019153
-7907.015650
167.125084
33.086464
-266.982047
-6125.838180
116.597862
-390.782297
47.809829
139.272551
-258.718088
-62.097188
76.596900