# vtk DataFile Version 2.0
cantilever_quad4_mix
ASCII
DATASET POLYDATA
POINTS 297 float
0.000000 -6.000000 0.000000
48.000000 -6.000000 0.000000
48.000000 6.000000 0.000000
0.000000 6.000000 0.000000
1.500000 -6.000000 0.000000
3.000000 -6.000000 0.000000
4.500000 -6.000000 0.000000
6.000000 -6.000000 0.000000
7.500000 -6.000000 0.000000
9.000000 -6.000000 0.000000
10.500000 -6.000000 0.000000
12.000000 -6.000000 0.000000
13.500000 -6.000000 0.000000
15.000000 -6.000000 0.000000
16.500000 -6.000000 0.000000
18.000000 -6.000000 0.000000
19.500000 -6.000000 0.000000
21.000000 -6.000000 0.000000
22.500000 -6.000000 0.000000
24.000000 -6.000000 0.000000
25.500000 -6.000000 0.000000
27.000000 -6.000000 0.000000
28.500000 -6.000000 0.000000
30.000000 -6.000000 0.000000
31.500000 -6.000000 0.000000
33.000000 -6.000000 0.000000
34.500000 -6.000000 0.000000
36.000000 -6.000000 0.000000
37.500000 -6.000000 0.000000
39.000000 -6.000000 0.000000
40.500000 -6.000000 0.000000
42.000000 -6.000000 0.000000
43.500000 -6.000000 0.000000
45.000000 -6.000000 0.000000
46.500000 -6.000000 0.000000
48.000000 -4.500000 0.000000
48.000000 -3.000000 0.000000
48.000000 -1.500000 0.000000
48.000000 -0.000000 0.000000
48.000000 1.500000 0.000000
48.000000 3.000000 0.000000
48.000000 4.500000 0.000000
46.500000 6.000000 0.000000
45.000000 6.000000 0.000000
43.500000 6.000000 0.000000
42.000000 6.000000 0.000000
40.500000 6.000000 0.000000
39.000000 6.000000 0.000000
37.500000 6.000000 0.000000
36.000000 6.000000 0.000000
34.500000 6.000000 0.000000
33.000000 6.000000 0.000000
31.500000 6.000000 0.000000
30.000000 6.000000 0.000000
28.500000 6.000000 0.000000
27.000000 6.000000 0.000000
25.500000 6.000000 0.000000
24.000000 6.000000 0.000000
22.500000 6.000000 0.000000
21.000000 6.000000 0.000000
19.500000 6.000000 0.000000
18.000000 6.000000 0.000000
16.500000 6.000000 0.000000
15.000000 6.000000 0.000000
13.500000 6.000000 0.000000
12.000000 6.000000 0.000000
10.500000 6.000000 0.000000
9.000000 6.000000 0.000000
7.500000 6.000000 0.000000
6.000000 6.000000 0.000000
4.500000 6.000000 0.000000
3.000000 6.000000 0.000000
1.500000 6.000000 0.000000
0.000000 4.500000 0.000000
0.000000 3.000000 0.000000
0.000000 1.500000 0.000000
0.000000 0.000000 0.000000
0.000000 -1.500000 0.000000
0.000000 -3.000000 0.000000
0.000000 -4.500000 0.000000
1.500000 -4.500000 0.000000
1.500000 -3.000000 0.000000
1.500000 -1.500000 0.000000
1.500000 0.000000 0.000000
1.500000 1.500000 0.000000
1.500000 3.000000 0.000000
1.500000 4.500000 0.000000
3.000000 -4.500000 0.000000
3.000000 -3.000000 0.000000
3.000000 -1.500000 0.000000
3.000000 0.000000 0.000000
3.000000 1.500000 0.000000
3.000000 3.000000 0.000000
3.000000 4.500000 0.000000
4.500000 -4.500000 0.000000
4.500000 -3.000000 0.000000
4.500000 -1.500000 0.000000
4.500000 0.000000 0.000000
4.500000 1.500000 0.000000
4.500000 3.000000 0.000000
4.500000 4.500000 0.000000
6.000000 -4.500000 0.000000
6.000000 -3.000000 0.000000
6.000000 -1.500000 0.000000
6.000000 0.000000 0.000000
6.000000 1.500000 0.000000
6.000000 3.000000 0.000000
6.000000 4.500000 0.000000
7.500000 -4.500000 0.000000
7.500000 -3.000000 0.000000
7.500000 -1.500000 0.000000
7.500000 0.000000 0.000000
7.500000 1.500000 0.000000
7.500000 3.000000 0.000000
7.500000 4.500000 0.000000
9.000000 -4.500000 0.000000
9.000000 -3.000000 0.000000
9.000000 -1.500000 0.000000
9.000000 0.000000 0.000000
9.000000 1.500000 0.000000
9.000000 3.000000 0.000000
9.000000 4.500000 0.000000
10.500000 -4.500000 0.000000
10.500000 -3.000000 0.000000
10.500000 -1.500000 0.000000
10.500000 0.000000 0.000000
10.500000 1.500000 0.000000
10.500000 3.000000 0.000000
10.500000 4.500000 0.000000
12.000000 -4.500000 0.000000
12.000000 -3.000000 0.000000
12.000000 -1.500000 0.000000
12.000000 0.000000 0.000000
12.000000 1.500000 0.000000
12.000000 3.000000 0.000000
12.000000 4.500000 0.000000
13.500000 -4.500000 0.000000
13.500000 -3.000000 0.000000
13.500000 -1.500000 0.000000
13.500000 0.000000 0.000000
13.500000 1.500000 0.000000
13.500000 3.000000 0.000000
13.500000 4.500000 0.000000
15.000000 -4.500000 0.000000
15.000000 -3.000000 0.000000
15.000000 -1.500000 0.000000
15.000000 0.000000 0.000000
15.000000 1.500000 0.000000
15.000000 3.000000 0.000000
15.000000 4.500000 0.000000
16.500000 -4.500000 0.000000
16.500000 -3.000000 0.000000
16.500000 -1.500000 0.000000
16.500000 0.000000 0.000000
16.500000 1.500000 0.000000
16.500000 3.000000 0.000000
16.500000 4.500000 0.000000
18.000000 -4.500000 0.000000
18.000000 -3.000000 0.000000
18.000000 -1.500000 0.000000
18.000000 0.000000 0.000000
18.000000 1.500000 0.000000
18.000000 3.000000 0.000000
18.000000 4.500000 0.000000
19.500000 -4.500000 0.000000
19.500000 -3.000000 0.000000
19.500000 -1.500000 0.000000
19.500000 0.000000 0.000000
19.500000 1.500000 0.000000
19.500000 3.000000 0.000000
19.500000 4.500000 0.000000
21.000000 -4.500000 0.000000
21.000000 -3.000000 0.000000
21.000000 -1.500000 0.000000
21.000000 0.000000 0.000000
21.000000 1.500000 0.000000
21.000000 3.000000 0.000000
21.000000 4.500000 0.000000
22.500000 -4.500000 0.000000
22.500000 -3.000000 0.000000
22.500000 -1.500000 0.000000
22.500000 0.000000 0.000000
22.500000 1.500000 0.000000
22.500000 3.000000 0.000000
22.500000 4.500000 0.000000
24.000000 -4.500000 0.000000
24.000000 -3.000000 0.000000
24.000000 -1.500000 0.000000
24.000000 -0.000000 0.000000
24.000000 1.500000 0.000000
24.000000 3.000000 0.000000
24.000000 4.500000 0.000000
25.500000 -4.500000 0.000000
25.500000 -3.000000 0.000000
25.500000 -1.500000 0.000000
25.500000 -0.000000 0.000000
25.500000 1.500000 0.000000
25.500000 3.000000 0.000000
25.500000 4.500000 0.000000
27.000000 -4.500000 0.000000
27.000000 -3.000000 0.000000
27.000000 -1.500000 0.000000
27.000000 -0.000000 0.000000
27.000000 1.500000 0.000000
27.000000 3.000000 0.000000
27.000000 4.500000 0.000000
28.500000 -4.500000 0.000000
28.500000 -3.000000 0.000000
28.500000 -1.500000 0.000000
28.500000 -0.000000 0.000000
28.500000 1.500000 0.000000
28.500000 3.000000 0.000000
28.500000 4.500000 0.000000
30.000000 -4.500000 0.000000
30.000000 -3.000000 0.000000
30.000000 -1.500000 0.000000
30.000000 -0.000000 0.000000
30.000000 1.500000 0.000000
30.000000 3.000000 0.000000
30.000000 4.500000 0.000000
31.500000 -4.500000 0.000000
31.500000 -3.000000 0.000000
31.500000 -1.500000 0.000000
31.500000 -0.000000 0.000000
31.500000 1.500000 0.000000
31.500000 3.000000 0.000000
31.500000 4.500000 0.000000
33.000000 -4.500000 0.000000
33.000000 -3.000000 0.000000
33.000000 -1.500000 0.000000
33.000000 -0.000000 0.000000
33.000000 1.500000 0.000000
33.000000 3.000000 0.000000
33.000000 4.500000 0.000000
34.500000 -4.500000 0.000000
34.500000 -3.000000 0.000000
34.500000 -1.500000 0.000000
34.500000 -0.000000 0.000000
34.500000 1.500000 0.000000
34.500000 3.000000 0.000000
34.500000 4.500000 0.000000
36.000000 -4.500000 0.000000
36.000000 -3.000000 0.000000
36.000000 -1.500000 0.000000
36.000000 -0.000000 0.000000
36.000000 1.500000 0.000000
36.000000 3.000000 0.000000
36.000000 4.500000 0.000000
37.500000 -4.500000 0.000000
37.500000 -3.000000 0.000000
37.500000 -1.500000 0.000000
37.500000 -0.000000 0.000000
37.500000 1.500000 0.000000
37.500000 3.000000 0.000000
37.500000 4.500000 0.000000
39.000000 -4.500000 0.000000
39.000000 -3.000000 0.000000
39.000000 -1.500000 0.000000
39.000000 -0.000000 0.000000
39.000000 1.500000 0.000000
39.000000 3.000000 0.000000
39.000000 4.500000 0.000000
40.500000 -4.500000 0.000000
40.500000 -3.000000 0.000000
40.500000 -1.500000 0.000000
40.500000 -0.000000 0.000000
40.500000 1.500000 0.000000
40.500000 3.000000 0.000000
40.500000 4.500000 0.000000
42.000000 -4.500000 0.000000
42.000000 -3.000000 0.000000
42.000000 -1.500000 0.000000
42.000000 -0.000000 0.000000
42.000000 1.500000 0.000000
42.000000 3.000000 0.000000
42.000000 4.500000 0.000000
43.500000 -4.500000 0.000000
43.500000 -3.000000 0.000000
43.500000 -1.500000 0.000000
43.500000 -0.000000 0.000000
43.500000 1.500000 0.000000
43.500000 3.000000 0.000000
43.500000 4.500000 0.000000
45.000000 -4.500000 0.000000
45.000000 -3.000000 0.000000
45.000000 -1.500000 0.000000
45.000000 -0.000000 0.000000
45.000000 1.500000 0.000000
45.000000 3.000000 0.000000
45.000000 4.500000 0.000000
46.500000 -4.500000 0.000000
46.500000 -3.000000 0.000000
46.500000 -1.500000 0.000000
46.500000 -0.000000 0.000000
46.500000 1.500000 0.000000
46.500000 3.000000 0.000000
46.500000 4.500000 0.000000
POLYGONS 256 1280
4 0 4 80 79
4 79 80 81 78
4 78 81 82 77
4 77 82 83 76
4 76 83 84 75
4 75 84 85 74
4 74 85 86 73
4 73 86 72 3
4 4 5 87 80
4 80 87 88 81
4 81 88 89 82
4 82 89 90 83
4 83 90 91 84
4 84 91 92 85
4 85 92 93 86
4 86 93 71 72
4 5 6 94 87
4 87 94 95 88
4 88 95 96 89
4 89 96 97 90
4 90 97 98 91
4 91 98 99 92
4 92 99 100 93
4 93 100 70 71
4 6 7 101 94
4 94 101 102 95
4 95 102 103 96
4 96 103 104 97
4 97 104 105 98
4 98 105 106 99
4 99 106 107 100
4 100 107 69 70
4 7 8 108 101
4 101 108 109 102
4 102 109 110 103
4 103 110 111 104
4 104 111 112 105
4 105 112 113 106
4 106 113 114 107
4 107 114 68 69
4 8 9 115 108
4 108 115 116 109
4 109 116 117 110
4 110 117 118 111
4 111 118 119 112
4 112 119 120 113
4 113 120 121 114
4 114 121 67 68
4 9 10 122 115
4 115 122 123 116
4 116 123 124 117
4 117 124 125 118
4 118 125 126 119
4 119 126 127 120
4 120 127 128 121
4 121 128 66 67
4 10 11 129 122
4 122 129 130 123
4 123 130 131 124
4 124 131 132 125
4 125 132 133 126
4 126 133 134 127
4 127 134 135 128
4 128 135 65 66
4 11 12 136 129
4 129 136 137 130
4 130 137 138 131
4 131 138 139 132
4 132 139 140 133
4 133 140 141 134
4 134 141 142 135
4 135 142 64 65
4 12 13 143 136
4 136 143 144 137
4 137 144 145 138
4 138 145 146 139
4 139 146 147 140
4 140 147 148 141
4 141 148 149 142
4 142 149 63 64
4 13 14 150 143
4 143 150 151 144
4 144 151 152 145
4 145 152 153 146
4 146 153 154 147
4 147 154 155 148
4 148 155 156 149
4 149 156 62 63
4 14 15 157 150
4 150 157 158 151
4 151 158 159 152
4 152 159 160 153
4 153 160 161 154
4 154 161 162 155
4 155 162 163 156
4 156 163 61 62
4 15 16 164 157
4 157 164 165 158
4 158 165 166 159
4 159 166 167 160
4 160 167 168 161
4 161 168 169 162
4 162 169 170 163
4 163 170 60 61
4 16 17 171 164
4 164 171 172 165
4 165 172 173 166
4 166 173 174 167
4 167 174 175 168
4 168 175 176 169
4 169 176 177 170
4 170 177 59 60
4 17 18 178 171
4 171 178 179 172
4 172 179 180 173
4 173 180 181 174
4 174 181 182 175
4 175 182 183 176
4 176 183 184 177
4 177 184 58 59
4 18 19 185 178
4 178 185 186 179
4 179 186 187 180
4 180 187 188 181
4 181 188 189 182
4 182 189 190 183
4 183 190 191 184
4 184 191 57 58
4 19 20 192 185
4 185 192 193 186
4 186 193 194 187
4 187 194 195 188
4 188 195 196 189
4 189 196 197 190
4 190 197 198 191
4 191 198 56 57
4 20 21 199 192
4 192 199 200 193
4 193 200 201 194
4 194 201 202 195
4 195 202 203 196
4 196 203 204 197
4 197 204 205 198
4 198 205 55 56
4 21 22 206 199
4 199 206 207 200
4 200 207 208 201
4 201 208 209 202
4 202 209 210 203
4 203 210 211 204
4 204 211 212 205
4 205 212 54 55
4 22 23 213 206
4 206 213 214 207
4 207 214 215 208
4 208 215 216 209
4 209 216 217 210
4 210 217 218 211
4 211 218 219 212
4 212 219 53 54
4 23 24 220 213
4 213 220 221 214
4 214 221 222 215
4 215 222 223 216
4 216 223 224 217
4 217 224 225 218
4 218 225 226 219
4 219 226 52 53
4 24 25 227 220
4 220 227 228 221
4 221 228 229 222
4 222 229 230 223
4 223 230 231 224
4 224 231 232 225
4 225 232 233 226
4 226 233 51 52
4 25 26 234 227
4 227 234 235 228
4 228 235 236 229
4 229 236 237 230
4 230 237 238 231
4 231 238 239 232
4 232 239 240 233
4 233 240 50 51
4 26 27 241 234
4 234 241 242 235
4 235 242 243 236
4 236 243 244 237
4 237 244 245 238
4 238 245 246 239
4 239 246 247 240
4 240 247 49 50
4 27 28 248 241
4 241 248 249 242
4 242 249 250 243
4 243 250 251 244
4 244 251 252 245
4 245 252 253 246
4 246 253 254 247
4 247 254 48 49
4 28 29 255 248
4 248 255 256 249
4 249 256 257 250
4 250 257 258 251
4 251 258 259 252
4 252 259 260 253
4 253 260 261 254
4 254 261 47 48
4 29 30 262 255
4 255 262 263 256
4 256 263 264 257
4 257 264 265 258
4 258 265 266 259
4 259 266 267 260
4 260 267 268 261
4 261 268 46 47
4 30 31 269 262
4 262 269 270 263
4 263 270 271 264
4 264 271 272 265
4 265 272 273 266
4 266 273 274 267
4 267 274 275 268
4 268 275 45 46
4 31 32 276 269
4 269 276 277 270
4 270 277 278 271
4 271 278 279 272
4 272 279 280 273
4 273 280 281 274
4 274 281 282 275
4 275 282 44 45
4 32 33 283 276
4 276 283 284 277
4 277 284 285 278
4 278 285 286 279
4 279 286 287 280
4 280 287 288 281
4 281 288 289 282
4 282 289 43 44
4 33 34 290 283
4 283 290 291 284
4 284 291 292 285
4 285 292 293 286
4 286 293 294 287
4 287 294 295 288
4 288 295 296 289
4 289 296 42 43
4 34 1 35 290
4 290 35 36 291
4 291 36 37 292
4 292 37 38 293
4 293 38 39 294
4 294 39 40 295
4 295 40 41 296
4 296 41 2 42
CELL_DATA 256
SCALARS PRESSURE float 1
LOOKUP_TABLE default
-96057059433.275253
-67336799169.882973
-93634217000.955017
-79841287335.500351
-87601690172.847977
-77997719616.290634
-97424207034.556381
-73213553511.534897
89259114105.390656
19661291811.205704
72245279327.111130
72769450701.805008
29104369104.000275
76881026478.123871
73096151722.993103
56573857065.529526
-11845458771.569864
-10318897991.663069
-69830971916.116043
-8438710169.578976
-32073400004.184242
-35756644295.382690
-58589263675.750702
-8753702010.133585
10782018106.294832
1571146428.022401
40918136133.372894
-1350279520.020823
19441282167.933132
15596904193.299002
16031423283.253685
17046693196.872940
4843638728.192038
-17378294727.696022
1455220418.633502
-20482091454.063915
-4636631166.764956
1176196815.437490
-15079937551.321360
8293224516.094693
17751194078.601635
2543501207.810295
1941092832.946157
22386505124.946011
-1107406333.717861
4028602946.325742
-4249703723.348828
11798850363.552191
3183922568.821934
-10340839222.897255
-4983359189.319975
-10298255411.733440
-2820906510.372717
5565537524.465260
-8066758177.689206
10168479052.778965
12876581135.212440
-8584335526.463789
12414038721.526775
-2371919381.139616
412289470.114930
1696726069.568797
-5224604444.124331
10914136898.190876
10493568149.784740
-7069696191.374423
-674332197.824107
-1317957698.611493
-1649142260.811776
1642549338.104957
-7645736057.308110
10075352727.411669
11451920911.476929
-5237485057.513272
4922200399.590549
2236073688.058177
549078992.837462
4954253383.196408
-6388749977.857123
10488465263.430338
9356153450.826857
-6457350775.010265
3874601551.512912
-1666599376.068685
-1135493703.131926
3626619958.478358
-7653792962.145908
10104229443.814684
11241181231.374361
-7340828243.843300
3041126432.253040
-1170286794.013827
-1736391516.531941
2968532690.215746
-7189105521.610059
10216434315.357866
9721241007.632196
-7911709997.390924
2752377883.116735
-1753143090.126668
-1698795484.339881
3301789552.354563
-7279414103.332896
10300815252.661739
10482913447.886839
-7633413178.036515
3371804693.226322
-870729847.263512
-936351932.102234
3581421131.532992
-7041284222.913284
10537694955.396774
9992783729.523897
-7132357705.719121
3929278472.840389
-906987311.302488
-1191787480.911559
4065738220.436560
-6948974888.072739
10783702415.064438
10792620480.021982
-6295156261.835151
4083044834.922314
-578395043.367380
-1181054828.290587
3799004383.889725
-6910257843.609554
10504568659.433907
10827490790.075436
-6611608882.199877
4438696793.195843
-147636219.535547
-413840448.261108
3649582236.081372
-6747736061.829884
10432069678.781679
10872839058.182447
-8444076013.512207
2776087545.198089
-1739311560.733701
-378182308.075452
2576397804.648499
-6956849965.362041
10011953420.111908
10385460730.194046
-7397917619.773953
3338445713.246916
-1784660713.713281
-537025551.342464
3056631533.662972
-6468706020.010324
10693435171.455154
9884729105.913979
-6422237552.410939
4077295432.734136
-1267785224.358942
-1316932497.519285
3166198623.498737
-6928034132.918218
9814241557.265221
10116069609.405319
-7057727578.189025
4138211965.089661
-1214772938.256667
-606280250.215137
2743464023.410783
-6172922471.824874
10611555301.448328
10945389347.911573
-7936945531.920613
3348502944.123598
-1485174923.449200
702674447.529467
2016815575.124490
-6515876799.034831
9807684561.891340
10691533039.170326
-6964575818.303346
3849944013.958899
-1417227370.280619
-320345019.246501
2448124053.678446
-5772422221.929073
10338263096.918375
10265049614.130680
-6441206751.614101
4080618770.771990
-2125087598.833515
-706047743.018741
3058392643.891076
-7163063852.046476
10389418063.690113
10414826071.428551
-7175748293.557984
3705553242.521896
-1147281970.864307
-544310750.738830
3550306363.480489
-6953945793.519725
10565023396.350843
10662385552.230459
-7874352081.348188
3738264851.572042
-1529117288.798118
-661667250.233194
3863193711.467369
-7545618629.837096
10375155543.678516
10212035899.688494
-7007009755.675602
3570917379.161417
-943730494.600957
48836360.561097
2083030772.946503
-6030586466.018404
10231220530.339933
10247529901.447258
-6128531870.396079
3817562872.756070
-2408834028.601326
-32547082.883618
2176662318.150808
-5980572374.949981
10171915420.809696
10322089926.015574
-7269394388.081107
3662356968.519560
-1547429043.962535
224223303.804475
2057004744.636195
-5881099510.120956
9754034583.465792
10167242143.843950
-6832367813.451097
3405958522.985080
-1169212899.491341
-1137059043.052909
3864579427.045025
-7274835072.157504
11283238979.180193
12026323825.219967
-9223873634.133200
5591750357.681106
-2674081599.277322
1014720092.727867
1342068046.888752
-5852820080.812942
9171817000.880449
8938750759.032139
-4515590138.579041
1235796862.724447
812514499.557172
-2904692442.932539
5290451715.319507
-7879225629.122519
11055788431.781450
