# vtk DataFile Version 2.0
cantilever_quad8_mix
ASCII
DATASET POLYDATA
POINTS 800 float
0.000000 -6.000000 0.000000
48.000000 -6.000000 0.000000
48.000000 6.000000 0.000000
0.000000 6.000000 0.000000
0.857143 -6.000000 0.000000
1.714286 -6.000000 0.000000
2.571429 -6.000000 0.000000
3.428571 -6.000000 0.000000
4.285714 -6.000000 0.000000
5.142857 -6.000000 0.000000
6.000000 -6.000000 0.000000
6.857143 -6.000000 0.000000
7.714286 -6.000000 0.000000
8.571429 -6.000000 0.000000
9.428571 -6.000000 0.000000
10.285714 -6.000000 0.000000
11.142857 -6.000000 0.000000
12.000000 -6.000000 0.000000
12.857143 -6.000000 0.000000
13.714286 -6.000000 0.000000
14.571429 -6.000000 0.000000
15.428571 -6.000000 0.000000
16.285714 -6.000000 0.000000
17.142857 -6.000000 0.000000
18.000000 -6.000000 0.000000
18.857143 -6.000000 0.000000
19.714286 -6.000000 0.000000
20.571429 -6.000000 0.000000
21.428571 -6.000000 0.000000
22.285714 -6.000000 0.000000
23.142857 -6.000000 0.000000
24.000000 -6.000000 0.000000
24.857143 -6.000000 0.000000
25.714286 -6.000000 0.000000
26.571429 -6.000000 0.000000
27.428571 -6.000000 0.000000
28.285714 -6.000000 0.000000
29.142857 -6.000000 0.000000
30.000000 -6.000000 0.000000
30.857143 -6.000000 0.000000
31.714286 -6.000000 0.000000
32.571429 -6.000000 0.000000
33.428571 -6.000000 0.000000
34.285714 -6.000000 0.000000
35.142857 -6.000000 0.000000
36.000000 -6.000000 0.000000
36.857143 -6.000000 0.000000
37.714286 -6.000000 0.000000
38.571429 -6.000000 0.000000
39.428571 -6.000000 0.000000
40.285714 -6.000000 0.000000
41.142857 -6.000000 0.000000
42.000000 -6.000000 0.000000
42.857143 -6.000000 0.000000
43.714286 -6.000000 0.000000
44.571429 -6.000000 0.000000
45.428571 -6.000000 0.000000
46.285714 -6.000000 0.000000
47.142857 -6.000000 0.000000
48.000000 -5.142857 0.000000
48.000000 -4.285714 0.000000
48.000000 -3.428571 0.000000
48.000000 -2.571429 0.000000
48.000000 -1.714286 0.000000
48.000000 -0.857143 0.000000
48.000000 -0.000000 0.000000
48.000000 0.857143 0.000000
48.000000 1.714286 0.000000
48.000000 2.571429 0.000000
48.000000 3.428571 0.000000
48.000000 4.285714 0.000000
48.000000 5.142857 0.000000
47.142857 6.000000 0.000000
46.285714 6.000000 0.000000
45.428571 6.000000 0.000000
44.571429 6.000000 0.000000
43.714286 6.000000 0.000000
42.857143 6.000000 0.000000
42.000000 6.000000 0.000000
41.142857 6.000000 0.000000
40.285714 6.000000 0.000000
39.428571 6.000000 0.000000
38.571429 6.000000 0.000000
37.714286 6.000000 0.000000
36.857143 6.000000 0.000000
36.000000 6.000000 0.000000
35.142857 6.000000 0.000000
34.285714 6.000000 0.000000
33.428571 6.000000 0.000000
32.571429 6.000000 0.000000
31.714286 6.000000 0.000000
30.857143 6.000000 0.000000
30.000000 6.000000 0.000000
29.142857 6.000000 0.000000
28.285714 6.000000 0.000000
27.428571 6.000000 0.000000
26.571429 6.000000 0.000000
25.714286 6.000000 0.000000
24.857143 6.000000 0.000000
24.000000 6.000000 0.000000
23.142857 6.000000 0.000000
22.285714 6.000000 0.000000
21.428571 6.000000 0.000000
20.571429 6.000000 0.000000
19.714286 6.000000 0.000000
18.857143 6.000000 0.000000
18.000000 6.000000 0.000000
17.142857 6.000000 0.000000
16.285714 6.000000 0.000000
15.428571 6.000000 0.000000
14.571429 6.000000 0.000000
13.714286 6.000000 0.000000
12.857143 6.000000 0.000000
12.000000 6.000000 0.000000
11.142857 6.000000 0.000000
10.285714 6.000000 0.000000
9.428571 6.000000 0.000000
8.571429 6.000000 0.000000
7.714286 6.000000 0.000000
6.857143 6.000000 0.000000
6.000000 6.000000 0.000000
5.142857 6.000000 0.000000
4.285714 6.000000 0.000000
3.428571 6.000000 0.000000
2.571429 6.000000 0.000000
1.714286 6.000000 0.000000
0.857143 6.000000 0.000000
0.000000 5.142857 0.000000
0.000000 4.285714 0.000000
0.000000 3.428571 0.000000
0.000000 2.571429 0.000000
0.000000 1.714286 0.000000
0.000000 0.857143 0.000000
0.000000 0.000000 0.000000
0.000000 -0.857143 0.000000
0.000000 -1.714286 0.000000
0.000000 -2.571429 0.000000
0.000000 -3.428571 0.000000
0.000000 -4.285714 0.000000
0.000000 -5.142857 0.000000
46.264570 2.390269 0.000000
16.687440 0.001503 0.000000
37.175867 -0.112138 0.000000
43.764411 1.537275 0.000000
20.778316 5.137122 0.000000
16.600990 -4.306593 0.000000
29.144194 2.454352 0.000000
29.099494 0.806208 0.000000
37.837163 4.252869 0.000000
45.468797 0.868071 0.000000
23.685987 5.130448 0.000000
2.586754 4.263085 0.000000
0.892264 -3.099858 0.000000
37.206203 1.446136 0.000000
43.583334 3.529140 0.000000
22.808580 0.867384 0.000000
41.559980 -5.102053 0.000000
21.937354 0.876090 0.000000
25.077098 -3.694363 0.000000
29.993046 4.262911 0.000000
15.071425 -0.974631 0.000000
7.849527 -4.233439 0.000000
17.234608 -1.716739 0.000000
31.726260 5.133524 0.000000
5.293303 -1.743796 0.000000
38.596931 2.567001 0.000000
38.044347 0.735154 0.000000
9.800716 -4.275438 0.000000
32.424519 -1.018835 0.000000
31.687010 1.624354 0.000000
5.249473 1.694066 0.000000
23.654911 0.851709 0.000000
21.064449 0.872072 0.000000
5.205361 4.265723 0.000000
21.604996 -2.546935 0.000000
1.786440 -2.530459 0.000000
14.454578 4.244840 0.000000
14.171433 -3.376728 0.000000
21.137621 2.583637 0.000000
20.220527 -1.708527 0.000000
46.057151 -2.517998 0.000000
42.717928 4.098800 0.000000
30.851040 0.757270 0.000000
15.938395 -0.881157 0.000000
43.794908 2.515448 0.000000
38.023360 -2.642957 0.000000
19.222126 -1.718413 0.000000
25.912946 -4.239219 0.000000
16.695900 1.716060 0.000000
25.382385 1.611310 0.000000
41.087311 -2.431127 0.000000
29.233375 4.267944 0.000000
38.488535 -1.812203 0.000000
4.621569 5.130852 0.000000
15.126157 -3.356484 0.000000
36.270680 0.833651 0.000000
21.468455 -4.267924 0.000000
42.450298 0.196245 0.000000
29.734803 -1.797144 0.000000
12.148308 -5.152116 0.000000
11.364284 -3.520716 0.000000
43.548323 -3.318260 0.000000
47.099733 -0.220617 0.000000
9.374645 -3.450489 0.000000
33.306501 1.692305 0.000000
39.255094 5.133548 0.000000
37.251628 5.121519 0.000000
15.348495 -1.814677 0.000000
16.681922 0.859673 0.000000
40.051142 -2.547158 0.000000
27.219432 -0.828787 0.000000
17.311190 4.290220 0.000000
22.972097 3.432416 0.000000
32.599296 5.137545 0.000000
32.658265 0.764946 0.000000
12.289693 0.849841 0.000000
11.410029 0.543041 0.000000
43.529249 -5.100866 0.000000
25.737046 0.381930 0.000000
34.482070 0.682518 0.000000
17.086245 -5.158544 0.000000
39.876567 -0.709209 0.000000
18.732905 -0.858434 0.000000
23.868008 3.422196 0.000000
44.679227 0.190447 0.000000
1.744784 2.405881 0.000000
5.243699 0.834276 0.000000
34.075049 -1.049909 0.000000
32.492176 -0.091376 0.000000
1.737236 -5.175090 0.000000
15.832394 2.553253 0.000000
44.484631 3.257277 0.000000
13.497233 4.223527 0.000000
17.550048 0.021373 0.000000
2.707177 5.128924 0.000000
1.767221 -3.453031 0.000000
13.200779 -0.016286 0.000000
30.775649 -0.105818 0.000000
7.895814 -0.722452 0.000000
16.359188 4.283373 0.000000
5.256273 2.553453 0.000000
12.332617 -0.022854 0.000000
22.087480 3.438254 0.000000
27.458133 5.231647 0.000000
35.021885 -4.393842 0.000000
46.209144 4.367954 0.000000
35.266700 1.640958 0.000000
13.653774 -4.290428 0.000000
24.772676 3.392858 0.000000
42.048594 -2.481131 0.000000
46.283008 -5.112783 0.000000
32.512483 3.409425 0.000000
45.389527 -5.108991 0.000000
36.526293 -5.123047 0.000000
32.555517 4.274807 0.000000
46.176053 5.198972 0.000000
33.610232 0.941425 0.000000
25.535466 -3.166663 0.000000
5.241119 -0.886212 0.000000
22.817243 1.726310 0.000000
29.131314 5.133247 0.000000
27.316406 -3.413086 0.000000
30.332000 -3.514188 0.000000
16.706515 -2.584774 0.000000
40.634252 0.919117 0.000000
10.530342 0.822305 0.000000
23.682303 1.718943 0.000000
9.293552 -5.179902 0.000000
0.876423 1.950622 0.000000
1.736115 1.419665 0.000000
36.000092 3.433682 0.000000
28.967070 -0.905940 0.000000
36.491940 -1.815150 0.000000
33.307642 -1.603176 0.000000
44.467586 -1.565884 0.000000
37.556644 -5.132564 0.000000
12.893025 3.464232 0.000000
41.284021 3.426652 0.000000
8.746881 2.561431 0.000000
8.729333 4.255867 0.000000
29.818556 -4.307755 0.000000
44.017244 -2.384686 0.000000
47.132081 1.886162 0.000000
42.552798 -5.100576 0.000000
36.921278 4.257431 0.000000
5.234876 -0.026059 0.000000
14.055125 0.397761 0.000000
21.984768 0.024803 0.000000
39.503451 2.326513 0.000000
5.514877 -2.594055 0.000000
14.690630 -2.466158 0.000000
32.431828 -5.150021 0.000000
35.381338 0.730457 0.000000
4.308685 -4.288474 0.000000
21.076863 1.728424 0.000000
16.085683 -5.125801 0.000000
27.264827 1.771663 0.000000
26.603259 -5.135869 0.000000
11.167312 -5.110583 0.000000
47.098209 5.014056 0.000000
28.246238 0.855086 0.000000
22.635217 -0.845846 0.000000
41.205892 2.568999 0.000000
2.611065 3.401355 0.000000
11.410187 1.506355 0.000000
40.751617 -0.040409 0.000000
8.234586 -2.078106 0.000000
21.095892 0.019261 0.000000
20.220364 4.277784 0.000000
29.915308 -0.086731 0.000000
7.004002 0.847089 0.000000
35.510867 -5.167328 0.000000
28.186165 1.705223 0.000000
26.484187 5.130791 0.000000
1.792529 5.146528 0.000000
24.825721 -5.195389 0.000000
34.222296 2.676156 0.000000
34.550570 -3.632410 0.000000
38.905418 0.749399 0.000000
23.793740 2.574836 0.000000
22.714451 5.130260 0.000000
28.319390 5.102165 0.000000
3.622075 -2.577229 0.000000
14.929960 0.802144 0.000000
38.792968 4.259589 0.000000
6.990808 -0.786564 0.000000
0.875540 -4.091315 0.000000
0.890377 5.024506 0.000000
24.091315 -4.296856 0.000000
9.662931 0.447410 0.000000
15.092260 -5.114390 0.000000
16.712473 3.421146 0.000000
23.383313 -3.433470 0.000000
17.578706 -4.290130 0.000000
6.202098 -1.747917 0.000000
1.740686 3.358455 0.000000
25.036221 4.248669 0.000000
29.837748 -0.944855 0.000000
10.546787 -0.101379 0.000000
35.477320 -3.468263 0.000000
45.247542 4.994950 0.000000
18.023499 5.145176 0.000000
26.428150 2.113296 0.000000
21.079437 -5.131725 0.000000
35.997817 -0.947455 0.000000
34.477242 -1.863392 0.000000
23.930190 -5.151544 0.000000
43.469238 -1.397752 0.000000
23.120067 4.274884 0.000000
21.210048 3.438931 0.000000
[...]
POINT_DATA 800
SCALARS P float 1
LOOKUP_TABLE default
-3012.538868
211.478533
-110.357041
2634.937892
2417.897557
-1975.077052
2186.229213
-94.358977
1085.620631
1029.873875
722.031722
944.162007
841.702175
795.006686
841.330663
780.033912
774.094807
756.538615
738.505725
718.746579
702.311279
683.968472
665.695765
648.001176
629.812528
611.940772
593.911496
575.982467
557.774174
539.877989
521.952741
503.792796
486.051390
467.764617
450.087742
431.681657
414.182966
395.798030
377.874170
360.017757
341.888484
324.087116
305.683980
288.070903
269.872533
251.974224
233.982460
215.653278
198.768144
179.106646
162.017972
145.298950
124.187875
107.707191
96.405072
63.699430
53.514345
78.678684
-64.749043
-209.559513
161.997525
-209.179859
123.930572
-60.036350
-29.542537
75.098232
-87.380888
65.924694
-63.575926
71.353310
-82.618286
106.250831
-6.874097
-37.571796
-58.210506
-70.402679
-89.742172
-107.667548
-126.357302
-143.486087
-162.380995
-179.676360
-198.014003
-215.930482
-234.105861
-251.919061
-269.824036
-288.207846
-305.642357
-324.252458
-341.731380
-360.047864
-377.908152
-395.835426
-414.082056
-431.675170
-450.137678
-467.698240
-485.993001
-503.935065
-521.820757
-539.869987
-557.824366
-576.081831
-593.881522
-611.490721
-630.825038
-646.264574
-668.549545
-680.062820
-705.173232
-720.151716
-732.393815
-767.193160
-767.520796
-777.740023
-865.217151
-738.940265
-922.170721
-860.483559
-737.904896
-1174.490650
-700.742220
-716.673843
-1922.435753
1054.625775
-2041.632246
-4448.283159
1911.829901
-1248.333373
-864.221792
292.829318
-564.747447
-127.686199
788.829044
-216.494949
325.432962
1912.462435
-2391.840905
5082.747462
-5.582576
0.176382
4.203194
-23.149001
-489.301291
473.009976
-161.904426
-53.276077
-151.258832
-11.496452
-436.577934
-1407.902631
-770.247917
-54.644161
-56.411143
-76.498467
114.896073
-79.891552
296.354134
-268.671754
112.366020
589.213625
184.890708
-292.439491
274.825572
-84.376155
-25.724949
582.297468
55.613870
-92.673256
-253.381809
-72.574392
-82.209212
-775.419842
235.220822
551.248939
-501.071446
400.689555
-242.892487
166.085487
44.852789
-75.866240
-45.401226
98.991479
-35.744142
92.506711
173.058669
327.666306
-187.096800
-127.486221
60.065339
-280.153676
60.314825
-637.874536
385.430913
-34.252028
396.262929
-4.185454
114.883010
644.259334
458.591943
45.183942
-52.105142
466.752760
-87.042226
-157.185228
-192.650024
206.972614
-94.743855
70.809462
60.275788
-460.409363
-300.616376
-276.711889
-41.029151
-106.378047
-67.918145
74.161056
-29.902682
-32.281357
557.997381
20.185588
87.909498
-288.978618
-4.165684
-507.904808
-129.101426
51.196912
4.904820
3295.909907
-285.728687
-38.953942
-506.996828
-2.474484
124.089122
1039.669754
1.820638
6.339990
113.751486
-475.212808
-405.078131
2.715355
-311.700778
-376.135246
199.531237
-22.694131
-73.245699
514.418548
-275.787177
48.874703
-11.310599
-184.698047
50.830420
205.648829
-231.127807
-32.706116
-47.484882
248.934756
105.489885
-152.113855
-338.998967
247.004078
217.286125
282.815293
-23.858452
-108.280569
-146.242331
685.194443
-947.888018
3.157240
-143.979039
60.378715
73.155449
82.337062
27.114403
187.744705
-425.757043
-80.975440
-354.657202
-546.378317
274.016449
33.648334
-6.243157
99.592819
-164.951001
23.346620
-46.841733
-2.231008
-69.255346
394.808762
287.834576
280.523537
-32.231828
805.992571
-162.815876
572.607489
-128.616272
384.544059
662.152662
-25.866932
-59.160005
75.022304
-60.658499
-316.561785
-195.211378
1.114579
278.302368
-1.865569
-415.919180
5.526490
-132.162664
225.881332
-118.164971
-386.207878
-2411.967054
421.250877
-129.135635
171.065055
-23.800665
-218.154416
-453.932853
-351.286578
441.148241
-93.267857
-137.097275
88.259128
2431.661817
421.097188
359.391136
-58.949942
588.502260
-373.223841
295.639694
456.760963
238.790802
-912.224552
-341.380454
59.999135
12.327135
151.883852
-48.322180
-539.028276
-159.546250
483.435878
39.750083
88.155332
433.993916
18.805915
-372.165492
-322.455992
-101.187996
496.243698
227.422050
-238.054261
-109.180158
505.516872
161.402590
-89.103321
16.008666
132.419545
-213.291413
-329.225917
272.260517
481.846930
-121.880674
222.037176
505.027082
-670.562338
-37.374008
-709.166879
169.429152
128.233783
33.569336
1578.786425
-0.890277
-84.648488
680.510717
-722.151107
1704.140835
-89.089538
-57.389141
222.533087
-12.207404
441.470144
683.268660
174.013020
206.189427
-123.207992
-101.739647
85.040289
-2118.619078
-205.696992
-656.476721
117.324372
-106.516426
-115.311895
177.761486
200.798192
-60.558569
112.347806
357.890647
-214.079290
-835.306971
-156.670527
-294.539498
-261.463911
-782.422730
-108.394929
-5.487597
539.192882
62.638356
59.154488
101.267928
-26.929111
-92.935771
465.750839
-2.024698
-243.477550
36.264557
50.381885
-190.811775
358.210957
114.629992
-248.697320
4.733083
478.425209
623.167586
-120.827102
244.330551
-0.617200
-133.389805
336.399477
497.217463
143.046515
243.685529
5.960907
5.614015
117.559490
2.609914
-506.594483
204.509394
-4.787683
-279.834458
-1.549931
244.212081
325.923063
136.299116
371.622896
163.722712
-391.663841
165.760074
302.263758
-184.576892
102.088390
211.243069
140.160898
-318.001296
254.724273
84.713590
7.153755
195.912394
-37.793076
748.242541
495.835884
-632.961778
63.972469
30.997056
13.808206
-110.197163
317.144401
-153.082540
133.407748
-194.495791
-971.287641
-441.507361
33.745227
-10.867988
8.333014
-483.057584
-194.351591
149.072192
49.077213
420.527203
-546.621591
65.317070
-86.678907
346.354785
78.914232
-25.529371
-80.055530
467.705681
-224.980126
-6.300436
-228.035877
-632.901674
-25.404881
236.753432
152.365493
-424.660538
-430.602932
-401.676700
-1234.448623
323.937127
-20.658586
153.219440
-587.534267
-396.716093
410.770049
-172.977390
426.872337
4.866074
-65.225301
-323.469436
-523.747246
-250.497808
69.692145
-67.678537
-203.523608
-150.103794
546.768580
111.801844
370.547035
435.699392
520.761416
-165.384498
386.742677
89.240532
-27.281261
-267.164449
-567.616685
-445.139671
371.017022
48.775835
178.134371
262.642551
74.803442
-332.421178
111.084617
106.535678
75.551821
16.096883
32.879769
-217.131048
-16.787318
-323.991467
34.424525
-98.905024
26.335007
191.908224
-334.039217
45.442517
103.266772
-66.918115
146.724920
-536.044990
95.179842
417.601665
-49.164726
31.643493
-331.534843
-230.301733
-70.093580
-222.702346
44.090008
-43.015776
-174.731167
-624.529133
11.163593
286.834709
-327.219354
-131.109837
-595.619011
-638.323462
56.788596
107.417524
-136.443053
2.134086
184.880076
23.641026
106.376131
-92.932818
247.033320
-43.925975
168.741558
412.802669
-15.834865
127.335057
158.619689
-157.768140
-308.928870
298.098605
-72.804815
53.553347
10.632736
183.407536
11.216777
27.979972
-12.140360
-256.308005
-471.795308
-235.044274
-353.324472
79.926867
-1.887565
-534.426103
-16.855266
-64.846897
77.276563
-26.564448
-102.497633
349.631724
-244.390878
192.814105
2.621830
150.487858
0.623600
6.489408
-18.396961
149.079122
-342.972996
91.489103
-244.497808
180.209975
-328.486116
449.656607
-464.695981
303.604494
298.699715
-213.125262
-385.845246
142.615407
80.970453
300.503434
749.295025
787.294946
-283.109761
313.205062
76.499832
-183.826878
352.614150
-210.558087
-52.893251
-612.634496
153.614455
382.464195
164.764356
-228.188725
95.044450
120.907542
-167.956327
399.566015
123.676103
-70.668780
-681.066804
306.123411
-34.835727
255.645224
-357.169071
-279.735449
-297.716762
-226.745241
522.385279
-108.717287
103.992244
-48.642851
-208.110204
10.384254
152.377938
4.323072
-8.427292
6.875108
249.258743
-391.163814
-193.597278
-551.305829
1161.041949
-345.911551
-53.588252
-137.492919
588.857167
-102.612636
104.142184
288.822828
223.395369
119.650089
44.384524
587.119600
-49.930783
-483.249927
-6.828351
-172.257575
328.057305
93.110651
-307.777056
-117.753880
23.942774
-402.741958
-139.253492
-33.916130
114.688145
-629.877319
-51.483503
-49.415480
-432.887846
-139.285754
4.023820
361.703977
206.405771
-178.457152
33.968274
-166.287896
184.218674
158.713530
-386.938962
75.912730
-112.825134
-262.649771
-191.725281
-339.347671
-401.379746
75.399077
371.620729
59.960081
-599.540381
-64.191791
-72.589636
11.495996
-195.576888
-95.516543
-14.126623
3.338630
411.289897
-556.257923
179.279045
-112.893160
-67.875889
334.878069
-132.602879
-484.703123
501.679816
316.600147
799.574008
671.560713
75.146227
-418.939042
1.839701
201.810463
539.692780
-74.547902
260.478777
-323.982475
-175.689781
-86.986789
227.919380
-386.278683
-279.245780
440.826233
517.923976
-42.891204
-423.147384
651.424142
159.645263
350.729886
-218.815474
-220.320274
85.916778
-446.275980
369.120667
609.495388
-257.248935
-90.165966
258.709059
-465.659702
58.826049
-258.357107
-179.442965
5.870591
262.334670
-93.779524
66.039849
-597.186270
553.502503
-302.207308
-97.483413
-529.040237
195.186568
227.811018
-15.839968
-933.736086
285.908023
-191.836016
-18.640378
-93.187350
-143.710036
-289.351715
69.298126
70.522593
-365.497740
-306.987869
-274.052217
