# vtk DataFile Version 2.0
cantilever_Q4P1_mix
ASCII
DATASET POLYDATA
POINTS 85 float
0.000000 -6.000000 0.000000
48.000000 -6.000000 0.000000
48.000000 6.000000 0.000000
0.000000 6.000000 0.000000
3.000000 -6.000000 0.000000
6.000000 -6.000000 0.000000
9.000000 -6.000000 0.000000
12.000000 -6.000000 0.000000
15.000000 -6.000000 0.000000
18.000000 -6.000000 0.000000
21.000000 -6.000000 0.000000
24.000000 -6.000000 0.000000
27.000000 -6.000000 0.000000
30.000000 -6.000000 0.000000
33.000000 -6.000000 0.000000
36.000000 -6.000000 0.000000
39.000000 -6.000000 0.000000
42.000000 -6.000000 0.000000
45.000000 -6.000000 0.000000
48.000000 -3.000000 0.000000
48.000000 -0.000000 0.000000
48.000000 3.000000 0.000000
45.000000 6.000000 0.000000
42.000000 6.000000 0.000000
39.000000 6.000000 0.000000
36.000000 6.000000 0.000000
33.000000 6.000000 0.000000
30.000000 6.000000 0.000000
27.000000 6.000000 0.000000
24.000000 6.000000 0.000000
21.000000 6.000000 0.000000
18.000000 6.000000 0.000000
15.000000 6.000000 0.000000
12.000000 6.000000 0.000000
9.000000 6.000000 0.000000
6.000000 6.000000 0.000000
3.000000 6.000000 0.000000
0.000000 3.000000 0.000000
0.000000 0.000000 0.000000
0.000000 -3.000000 0.000000
3.000000 -3.000000 0.000000
3.000000 0.000000 0.000000
3.000000 3.000000 0.000000
6.000000 -3.000000 0.000000
6.000000 0.000000 0.000000
6.000000 3.000000 0.000000
9.000000 -3.000000 0.000000
9.000000 0.000000 0.000000
9.000000 3.000000 0.000000
12.000000 -3.000000 0.000000
12.000000 0.000000 0.000000
12.000000 3.000000 0.000000
15.000000 -3.000000 0.000000
15.000000 0.000000 0.000000
15.000000 3.000000 0.000000
18.000000 -3.000000 0.000000
18.000000 0.000000 0.000000
18.000000 3.000000 0.000000
21.000000 -3.000000 0.000000
21.000000 0.000000 0.000000
21.000000 3.000000 0.000000
24.000000 -3.000000 0.000000
24.000000 -0.000000 0.000000
24.000000 3.000000 0.000000
27.000000 -3.000000 0.000000
27.000000 -0.000000 0.000000
27.000000 3.000000 0.000000
30.000000 -3.000000 0.000000
30.000000 -0.000000 0.000000
30.000000 3.000000 0.000000
33.000000 -3.000000 0.000000
33.000000 -0.000000 0.000000
33.000000 3.000000 0.000000
36.000000 -3.000000 0.000000
36.000000 -0.000000 0.000000
36.000000 3.000000 0.000000
39.000000 -3.000000 0.000000
39.000000 -0.000000 0.000000
39.000000 3.000000 0.000000
42.000000 -3.000000 0.000000
42.000000 -0.000000 0.000000
42.000000 3.000000 0.000000
45.000000 -3.000000 0.000000
45.000000 -0.000000 0.000000
45.000000 3.000000 0.000000
POLYGONS 64 320
4 0 4 40 39
4 39 40 41 38
4 38 41 42 37
4 37 42 36 3
4 4 5 43 40
4 40 43 44 41
4 41 44 45 42
4 42 45 35 36
4 5 6 46 43
4 43 46 47 44
4 44 47 48 45
4 45 48 34 35
4 6 7 49 46
4 46 49 50 47
4 47 50 51 48
4 48 51 33 34
4 7 8 52 49
4 49 52 53 50
4 50 53 54 51
4 51 54 32 33
4 8 9 55 52
4 52 55 56 53
4 53 56 57 54
4 54 57 31 32
4 9 10 58 55
4 55 58 59 56
4 56 59 60 57
4 57 60 30 31
4 10 11 61 58
4 58 61 62 59
4 59 62 63 60
4 60 63 29 30
4 11 12 64 61
4 61 64 65 62
4 62 65 66 63
4 63 66 28 29
4 12 13 67 64
4 64 67 68 65
4 65 68 69 66
4 66 69 27 28
4 13 14 70 67
4 67 70 71 68
4 68 71 72 69
4 69 72 26 27
4 14 15 73 70
4 70 73 74 71
4 71 74 75 72
4 72 75 25 26
4 15 16 76 73
4 73 76 77 74
4 74 77 78 75
4 75 78 24 25
4 16 17 79 76
4 76 79 80 77
4 77 80 81 78
4 78 81 23 24
4 17 18 82 79
4 79 82 83 80
4 80 83 84 81
4 81 84 22 23
4 18 1 19 82
4 82 19 20 83
4 83 20 21 84
4 84 21 2 22
POINT_DATA 85
VECTORS U float
0.000000 0.000153 0.000000
0.012256 0.068520 0.000000
-0.012256 0.068520 0.000000
-0.000000 0.000153 0.000000
0.001249 0.001639 0.000000
0.002573 0.002649 0.000000
0.003909 0.004462 0.000000
0.005148 0.006923 0.000000
0.006279 0.009977 0.000000
0.007315 0.013571 0.000000
0.008252 0.017659 0.000000
0.009090 0.022191 0.000000
0.009830 0.027117 0.000000
0.010471 0.032388 0.000000
0.011013 0.037955 0.000000
0.011457 0.043769 0.000000
0.011802 0.049780 0.000000
0.012049 0.055939 0.000000
0.012197 0.062193 0.000000
0.006049 0.068502 0.000000
0.000000 0.068497 0.000000
-0.006049 0.068502 0.000000
-0.012197 0.062193 0.000000
-0.012049 0.055939 0.000000
-0.011802 0.049780 0.000000
-0.011457 0.043769 0.000000
-0.011013 0.037955 0.000000
-0.010471 0.032388 0.000000
-0.009830 0.027117 0.000000
-0.009090 0.022191 0.000000
-0.008252 0.017659 0.000000
-0.007315 0.013571 0.000000
-0.006279 0.009977 0.000000
-0.005148 0.006923 0.000000
-0.003909 0.004462 0.000000
-0.002573 0.002649 0.000000
-0.001249 0.001639 0.000000
-0.000000 -0.000153 0.000000
-0.000000 0.000153 0.000000
0.000000 -0.000153 0.000000
0.000284 0.000410 0.000000
-0.000000 -0.000179 0.000000
-0.000284 0.000410 0.000000
0.001224 0.001612 0.000000
-0.000000 0.001261 0.000000
-0.001224 0.001612 0.000000
0.001888 0.003499 0.000000
-0.000000 0.003187 0.000000
-0.001888 0.003499 0.000000
0.002498 0.006037 0.000000
-0.000000 0.005739 0.000000
-0.002498 0.006037 0.000000
0.003066 0.009162 0.000000
-0.000000 0.008892 0.000000
-0.003066 0.009162 0.000000
0.003583 0.012832 0.000000
-0.000000 0.012585 0.000000
-0.003583 0.012832 0.000000
0.004052 0.016994 0.000000
-0.000000 0.016772 0.000000
-0.004052 0.016994 0.000000
0.004471 0.021599 0.000000
0.000000 0.021402 0.000000
-0.004471 0.021599 0.000000
0.004841 0.026599 0.000000
0.000000 0.026427 0.000000
-0.004841 0.026599 0.000000
0.005161 0.031945 0.000000
0.000000 0.031797 0.000000
-0.005161 0.031945 0.000000
0.005433 0.037586 0.000000
0.000000 0.037462 0.000000
-0.005433 0.037586 0.000000
0.005654 0.043473 0.000000
0.000000 0.043375 0.000000
-0.005654 0.043473 0.000000
0.005827 0.049558 0.000000
0.000000 0.049484 0.000000
-0.005827 0.049558 0.000000
0.005950 0.055790 0.000000
0.000000 0.055742 0.000000
-0.005950 0.055790 0.000000
0.006021 0.062123 0.000000
0.000000 0.062100 0.000000
-0.006021 0.062123 0.000000
CELL_DATA 64
SCALARS P float 1
LOOKUP_TABLE default
980.329605
568.488847
-568.488847
-980.329605
661.912914
218.750968
-218.750968
-661.912914
668.154718
211.912392
-211.912392
-668.154718
615.661148
209.035432
-209.035432
-615.661148
567.735941
187.713757
-187.713757
-567.735941
517.301175
173.188461
-173.188461
-517.301175
468.585868
155.816117
-155.816117
-468.585868
418.993824
139.858415
-139.858415
-418.993824
369.841003
123.168536
-123.168536
-369.841003
320.435729
106.902006
-106.902006
-320.435729
271.234404
90.294818
-90.294818
-271.234404
221.769407
74.129166
-74.129166
-221.769407
172.753868
57.166804
-57.166804
-172.753868
122.849805
41.840101
-41.840101
-122.849805
75.592700
23.823224
-23.823224
-75.592700
20.115896
5.813367
-5.813367
-20.115896
