# vtk DataFile Version 2.0
cantilever_quad4_mix
ASCII
DATASET POLYDATA
POINTS 1058 float
0.000000 -6.000000 0.000000
48.000000 -6.000000 0.000000
0.750000 -6.000000 0.000000
1.500000 -6.000000 0.000000
2.250000 -6.000000 0.000000
3.000000 -6.000000 0.000000
3.750000 -6.000000 0.000000
4.500000 -6.000000 0.000000
5.250000 -6.000000 0.000000
6.000000 -6.000000 0.000000
6.750000 -6.000000 0.000000
7.500000 -6.000000 0.000000
8.250000 -6.000000 0.000000
9.000000 -6.000000 0.000000
9.750000 -6.000000 0.000000
10.500000 -6.000000 0.000000
11.250000 -6.000000 0.000000
12.000000 -6.000000 0.000000
12.750000 -6.000000 0.000000
13.500000 -6.000000 0.000000
14.250000 -6.000000 0.000000
15.000000 -6.000000 0.000000
15.750000 -6.000000 0.000000
16.500000 -6.000000 0.000000
17.250000 -6.000000 0.000000
18.000000 -6.000000 0.000000
18.750000 -6.000000 0.000000
19.500000 -6.000000 0.000000
20.250000 -6.000000 0.000000
21.000000 -6.000000 0.000000
21.750000 -6.000000 0.000000
22.500000 -6.000000 0.000000
23.250000 -6.000000 0.000000
24.000000 -6.000000 0.000000
24.750000 -6.000000 0.000000
25.500000 -6.000000 0.000000
26.250000 -6.000000 0.000000
27.000000 -6.000000 0.000000
27.750000 -6.000000 0.000000
28.500000 -6.000000 0.000000
29.250000 -6.000000 0.000000
30.000000 -6.000000 0.000000
30.750000 -6.000000 0.000000
31.500000 -6.000000 0.000000
32.250000 -6.000000 0.000000
33.000000 -6.000000 0.000000
33.750000 -6.000000 0.000000
34.500000 -6.000000 0.000000
35.250000 -6.000000 0.000000
36.000000 -6.000000 0.000000
36.750000 -6.000000 0.000000
37.500000 -6.000000 0.000000
38.250000 -6.000000 0.000000
39.000000 -6.000000 0.000000
39.750000 -6.000000 0.000000
40.500000 -6.000000 0.000000
41.250000 -6.000000 0.000000
42.000000 -6.000000 0.000000
42.750000 -6.000000 0.000000
43.500000 -6.000000 0.000000
44.250000 -6.000000 0.000000
45.000000 -6.000000 0.000000
45.750000 -6.000000 0.000000
46.500000 -6.000000 0.000000
47.250000 -6.000000 0.000000
48.000000 6.000000 0.000000
48.000000 -5.250000 0.000000
48.000000 -4.500000 0.000000
48.000000 -3.750000 0.000000
48.000000 -3.000000 0.000000
48.000000 -2.250000 0.000000
48.000000 -1.500000 0.000000
48.000000 -0.750000 0.000000
48.000000 -0.000000 0.000000
48.000000 0.750000 0.000000
48.000000 1.500000 0.000000
48.000000 2.250000 0.000000
48.000000 3.000000 0.000000
48.000000 3.750000 0.000000
48.000000 4.500000 0.000000
48.000000 5.250000 0.000000
0.000000 6.000000 0.000000
47.250000 6.000000 0.000000
46.500000 6.000000 0.000000
45.750000 6.000000 0.000000
45.000000 6.000000 0.000000
44.250000 6.000000 0.000000
43.500000 6.000000 0.000000
42.750000 6.000000 0.000000
42.000000 6.000000 0.000000
41.250000 6.000000 0.000000
40.500000 6.000000 0.000000
39.750000 6.000000 0.000000
39.000000 6.000000 0.000000
38.250000 6.000000 0.000000
37.500000 6.000000 0.000000
36.750000 6.000000 0.000000
36.000000 6.000000 0.000000
35.250000 6.000000 0.000000
34.500000 6.000000 0.000000
33.750000 6.000000 0.000000
33.000000 6.000000 0.000000
32.250000 6.000000 0.000000
31.500000 6.000000 0.000000
30.750000 6.000000 0.000000
30.000000 6.000000 0.000000
29.250000 6.000000 0.000000
28.500000 6.000000 0.000000
27.750000 6.000000 0.000000
27.000000 6.000000 0.000000
26.250000 6.000000 0.000000
25.500000 6.000000 0.000000
24.750000 6.000000 0.000000
24.000000 6.000000 0.000000
23.250000 6.000000 0.000000
22.500000 6.000000 0.000000
21.750000 6.000000 0.000000
21.000000 6.000000 0.000000
20.250000 6.000000 0.000000
19.500000 6.000000 0.000000
18.750000 6.000000 0.000000
18.000000 6.000000 0.000000
17.250000 6.000000 0.000000
16.500000 6.000000 0.000000
15.750000 6.000000 0.000000
15.000000 6.000000 0.000000
14.250000 6.000000 0.000000
13.500000 6.000000 0.000000
12.750000 6.000000 0.000000
12.000000 6.000000 0.000000
11.250000 6.000000 0.000000
10.500000 6.000000 0.000000
9.750000 6.000000 0.000000
9.000000 6.000000 0.000000
8.250000 6.000000 0.000000
7.500000 6.000000 0.000000
6.750000 6.000000 0.000000
6.000000 6.000000 0.000000
5.250000 6.000000 0.000000
4.500000 6.000000 0.000000
3.750000 6.000000 0.000000
3.000000 6.000000 0.000000
2.250000 6.000000 0.000000
1.500000 6.000000 0.000000
0.750000 6.000000 0.000000
0.000000 5.250000 0.000000
0.000000 4.500000 0.000000
0.000000 3.750000 0.000000
0.000000 3.000000 0.000000
0.000000 2.250000 0.000000
0.000000 1.500000 0.000000
0.000000 0.750000 0.000000
0.000000 0.000000 0.000000
0.000000 -0.750000 0.000000
0.000000 -1.500000 0.000000
0.000000 -2.250000 0.000000
0.000000 -3.000000 0.000000
0.000000 -3.750000 0.000000
0.000000 -4.500000 0.000000
0.000000 -5.250000 0.000000
47.240434 5.173548 0.000000
30.364586 -0.785507 0.000000
47.225162 3.466240 0.000000
14.592070 -4.496473 0.000000
33.494550 2.895245 0.000000
33.336842 -0.224610 0.000000
32.119469 -1.378193 0.000000
4.190018 0.687004 0.000000
28.871749 3.718069 0.000000
13.576027 -3.042456 0.000000
29.290547 2.184900 0.000000
27.476249 -2.367200 0.000000
1.553524 2.429092 0.000000
35.606978 -1.355635 0.000000
30.818240 -4.481006 0.000000
38.980340 4.457130 0.000000
44.250275 -2.791483 0.000000
13.493695 5.225687 0.000000
24.299858 3.847947 0.000000
3.756860 -1.808501 0.000000
3.117478 -3.107870 0.000000
13.245893 -2.299424 0.000000
27.708476 -4.578455 0.000000
10.035343 -0.043943 0.000000
13.191771 -3.714520 0.000000
24.397611 -4.644389 0.000000
36.690132 2.275773 0.000000
36.672202 -3.026306 0.000000
21.328584 -2.854509 0.000000
21.927743 -0.419728 0.000000
16.816114 -1.112828 0.000000
25.383254 -5.187108 0.000000
22.097942 -3.635921 0.000000
42.783734 4.424466 0.000000
18.190532 -4.481710 0.000000
12.695910 -2.899924 0.000000
33.519287 4.452607 0.000000
42.872329 -1.143280 0.000000
6.004377 4.438435 0.000000
29.064541 -2.648409 0.000000
32.363610 -4.463539 0.000000
39.865265 -2.763548 0.000000
15.089394 -5.227037 0.000000
26.730543 0.412438 0.000000
45.733827 -2.798676 0.000000
3.172335 0.304630 0.000000
17.522310 -3.740416 0.000000
6.981353 -0.503258 0.000000
43.550034 -1.123628 0.000000
36.589001 -0.876314 0.000000
47.236120 1.668966 0.000000
6.510417 3.763271 0.000000
24.016071 3.214839 0.000000
28.254306 -0.324210 0.000000
4.136025 -1.114731 0.000000
14.374777 2.189858 0.000000
4.796153 2.172631 0.000000
43.511379 5.209111 0.000000
41.222506 1.342469 0.000000
5.218167 -0.703641 0.000000
24.209097 0.583002 0.000000
7.140216 -2.078726 0.000000
29.655699 4.415275 0.000000
28.864483 0.117942 0.000000
22.073623 0.914362 0.000000
21.022750 4.476217 0.000000
8.957179 3.673823 0.000000
40.479555 1.291261 0.000000
0.766168 -0.859644 0.000000
38.964642 3.690677 0.000000
39.320841 -3.444241 0.000000
2.500188 0.654026 0.000000
25.871405 2.645572 0.000000
33.118814 -5.219422 0.000000
42.020386 3.658661 0.000000
37.446204 4.482261 0.000000
31.982203 4.451257 0.000000
5.769527 2.405787 0.000000
25.103413 -1.771903 0.000000
20.077121 4.459508 0.000000
27.280047 -1.280086 0.000000
25.252153 -4.480144 0.000000
29.898796 -1.822492 0.000000
44.269123 2.032972 0.000000
6.556979 -1.310912 0.000000
5.469862 1.709354 0.000000
9.290460 -2.869631 0.000000
14.068076 -0.192436 0.000000
1.564497 -2.980781 0.000000
28.213695 -1.955320 0.000000
11.147588 -1.210273 0.000000
37.887613 -4.129079 0.000000
30.149275 0.997588 0.000000
41.678785 -1.025084 0.000000
43.564773 -3.578841 0.000000
38.954030 -1.488320 0.000000
1.547831 -1.323571 0.000000
27.740806 4.040765 0.000000
22.046957 -5.252675 0.000000
7.255499 1.857221 0.000000
24.789024 -2.862716 0.000000
25.706960 -1.584772 0.000000
2.281261 -5.228873 0.000000
35.559331 3.446288 0.000000
24.595932 -5.271389 0.000000
42.786749 -2.850278 0.000000
16.160701 -1.371046 0.000000
45.719786 3.621422 0.000000
30.617198 -1.547270 0.000000
39.000208 -5.233532 0.000000
9.302054 -4.440427 0.000000
28.498083 -5.239660 0.000000
9.755390 -5.225215 0.000000
40.514158 0.470909 0.000000
19.308117 0.509207 0.000000
33.537733 5.215618 0.000000
7.552841 -2.862206 0.000000
11.514915 0.359435 0.000000
40.537634 -2.258773 0.000000
23.733195 4.482362 0.000000
37.450429 -3.072474 0.000000
46.468745 0.405334 0.000000
0.776002 -4.374945 0.000000
42.806642 -0.310488 0.000000
26.605046 -2.731381 0.000000
19.022801 -4.463073 0.000000
43.542632 0.467607 0.000000
39.124367 -0.404074 0.000000
7.352324 -1.289845 0.000000
37.472301 5.232631 0.000000
18.208290 -2.240367 0.000000
19.730357 -2.146176 0.000000
7.537904 -4.429585 0.000000
36.525782 1.477039 0.000000
19.062277 -2.916844 0.000000
1.494961 4.329832 0.000000
30.266547 2.133899 0.000000
29.143307 -3.187468 0.000000
47.241879 -0.067720 0.000000
34.961674 3.693238 0.000000
11.535949 -5.219387 0.000000
10.402537 4.426690 0.000000
27.409413 -3.466821 0.000000
26.191652 4.646753 0.000000
24.134176 -3.078263 0.000000
7.978856 -3.648339 0.000000
9.811134 0.706382 0.000000
33.782016 -3.596631 0.000000
32.713402 5.214800 0.000000
23.363039 -0.264588 0.000000
33.932759 0.527844 0.000000
31.261315 2.946870 0.000000
42.084022 -4.456019 0.000000
16.174862 1.025981 0.000000
3.683889 5.227207 0.000000
47.231974 2.570255 0.000000
14.619414 0.680651 0.000000
37.205462 0.632036 0.000000
3.991067 -4.438498 0.000000
44.263548 -0.359447 0.000000
18.726543 5.257444 0.000000
28.232808 2.436644 0.000000
46.471904 2.865215 0.000000
35.531313 0.447601 0.000000
20.634782 -4.441655 0.000000
8.230275 5.211920 0.000000
26.268580 -0.459896 0.000000
38.062008 0.081400 0.000000
40.558061 -4.524718 0.000000
22.676617 -1.976951 0.000000
46.477479 2.047598 0.000000
36.593004 -1.475849 0.000000
17.050796 0.571929 0.000000
6.673361 -2.872570 0.000000
12.659468 5.215171 0.000000
1.563322 3.243546 0.000000
37.397631 3.757257 0.000000
14.338787 4.484659 0.000000
27.571708 1.992823 0.000000
44.244428 5.209672 0.000000
16.933438 -5.225023 0.000000
36.307327 -4.652813 0.000000
23.520255 -0.968187 0.000000
26.381437 -3.241909 0.000000
25.950493 3.731599 0.000000
22.854870 -5.192741 0.000000
17.228973 -1.758679 0.000000
0.780436 -1.764068 0.000000
8.938279 2.127669 0.000000
38.906054 0.691700 0.000000
[...]
POINT_DATA 1058
SCALARS P float 1
LOOKUP_TABLE default
478.131165
-19.745590
682.935651
916.107250
1068.469343
1016.683840
932.757694
1027.981874
895.751968
812.508149
844.447692
865.488324
825.939472
785.974154
788.160820
800.762652
781.218232
755.332695
740.575086
665.583645
575.939815
510.375401
529.710466
547.985348
583.736468
568.467595
488.441036
493.230228
556.125844
578.775364
518.575584
471.664300
501.139679
386.921109
274.755206
208.123349
-37.978003
100.778018
-326.191401
-140.454829
-586.826861
-488.431003
-527.488686
-333.385424
-112.560201
166.488828
315.622607
296.543164
-87.895376
-527.811207
-923.708203
-1100.275631
-1001.822252
-654.725217
-483.819816
-161.944542
-104.741588
34.728307
39.764876
49.394470
79.583558
58.268108
34.194165
29.924007
12.802380
-7.865974
-0.572154
6.312345
5.940326
-20.669010
-35.968485
-36.555701
-26.957400
-9.084853
5.372733
3.266825
2.123781
-1.907403
4.750346
-6.111333
10.296353
-1057.484704
-17.305852
-46.355321
-53.505850
-71.283583
-84.049271
-101.043512
-117.012108
-131.693566
-150.677688
-162.571591
-183.463541
-196.742762
-259.493636
-365.630950
-456.751774
-478.981309
-391.369094
-324.637293
-291.341405
-326.721281
-340.097548
-350.222277
-394.567787
-434.124313
-431.205574
-399.499103
-607.036721
-753.080657
-756.438748
-659.430362
-578.294232
-587.168148
-686.323402
-974.016155
-1365.736694
-1641.757264
-1590.989546
-1387.279078
-1188.192820
-1054.690316
-894.317894
-833.338633
-771.232314
-767.700975
-831.461653
-831.296452
-767.127981
-747.679134
-781.127271
-791.789243
-802.551741
-818.270609
-838.788093
-850.916474
-883.108979
-898.561753
-809.402668
-817.428946
-774.808282
-1129.068318
-1224.607571
-1040.341916
-1099.024031
-639.842342
26.875348
-1509.499153
1999.477632
308.702054
2838.829462
3000.558402
1813.712756
150.073707
289.979908
782.998059
174.389754
1214.852482
391.684994
1461.414571
-14.045937
358.476258
-10.831200
339.940446
-158.829565
27.739103
-50.550418
453.130870
-177.671476
228.422209
-83.179877
688.692046
956.432739
68.597234
-663.448377
-163.334450
4.595688
-531.990474
-236.816518
-357.698926
821.828932
400.259971
-470.703940
16.175584
515.551555
149.206653
37.945645
268.536268
254.019515
30.189210
140.202549
710.272267
301.329476
-83.263837
326.464819
324.402424
-229.586495
107.302508
-648.476755
573.997365
-25.923746
390.097037
780.535930
-20.522655
28.083138
693.493742
502.066136
154.432557
-46.989733
96.620757
-9.068038
-545.446379
-760.661664
63.226568
920.044293
-155.858640
-568.033432
-77.602820
-0.856875
-53.594545
-25.171935
307.079436
-317.218595
-37.895327
-66.698083
-1998.431168
-504.410726
-87.421652
41.414769
-57.130944
-9.252205
-312.795675
-162.610416
336.770723
-72.982586
-390.247561
-248.091202
-511.772107
394.040678
-1434.593804
134.346744
-87.814642
-327.286465
-31.725141
278.107016
-105.197719
406.654776
11.911156
746.198456
166.990060
163.770175
876.656794
-29.966244
107.571866
37.318426
-192.204508
124.836880
19.343893
531.534953
-265.992509
472.009106
120.569696
639.029761
-165.901619
687.539021
26.791996
97.712174
-29.495955
-325.553651
1028.392215
598.289473
1018.264682
693.591667
-12.706359
52.572848
-264.444597
361.304037
-38.974633
81.373564
-579.236351
189.209637
-12.832492
391.577869
20.087041
259.947454
344.931500
-56.859518
12.179030
82.850684
-10.681671
362.116928
213.913434
646.358929
-64.935304
242.439843
-442.366452
-29.623385
-633.973040
16.487303
-145.908423
652.447381
-581.062403
255.634883
-625.134485
-12.503999
540.720945
-96.233679
346.160771
-265.854831
46.897312
-6.401035
-277.538906
11.746761
-30.662263
-853.613855
-5.150841
0.138155
222.036158
822.324030
59.906533
15.950651
-232.944084
-19.653616
-59.773359
428.490661
-720.213304
10.354449
-213.153060
-115.859439
220.626410
-4.122064
52.834498
-43.689462
512.801077
-641.242919
-515.624642
91.531403
-685.553441
-82.433312
-64.556605
641.385351
-808.307231
6.630248
-62.682442
-150.731987
504.265898
109.664857
250.585719
-268.722041
86.736158
-198.214036
-278.758233
-47.942656
-288.649323
-476.123153
-9.553755
22.390409
-34.241748
48.487450
489.756997
2314.017306
-1060.055375
-155.875155
166.352746
254.499110
33.500094
49.350859
-240.971111
49.554557
-47.640621
51.492517
-579.218539
633.071143
-115.612672
522.736619
583.773097
401.339803
88.553623
1068.945716
170.441372
845.269105
-356.224785
1215.290830
96.108000
671.367756
-217.307934
-71.331362
-607.512751
-469.082301
254.609688
36.769514
15.110800
-149.985960
-112.982869
-495.213821
92.406731
63.783248
85.316349
-361.492813
-490.553735
1146.724891
-89.783814
549.590600
1386.288684
349.081332
466.382205
-41.427872
-28.287296
898.723708
150.230965
418.673245
-245.796119
690.029262
-24.957544
-115.094597
-144.395791
-55.388373
-34.225773
-124.343938
645.396331
173.124569
-590.701892
60.127334
548.681481
141.050784
-136.778626
2.022897
572.711474
-594.850823
-1509.218113
-39.485981
714.748761
-614.870368
-49.552279
-176.012467
-220.233393
-421.918369
-72.634128
32.350543
-233.637155
43.843489
-35.774773
-137.033593
-153.370767
-180.320128
-21.766294
67.171448
-33.148782
1305.148668
-440.323932
-391.473427
438.419974
-65.225637
-16.923969
-433.120814
-1152.697817
-289.870759
189.267769
226.639366
-17.575758
-494.013617
-100.136266
60.602835
-77.360675
755.319048
103.059290
59.839568
-361.921118
-288.258798
923.039384
5.890832
192.694239
508.275101
-556.052291
-301.786817
-506.062234
-295.236284
176.243800
-153.140860
-103.124524
-27.664876
63.767157
-96.433989
-77.807220
389.105601
-664.045041
-17.733152
-31.482279
-10.668747
-330.016091
-645.031670
15.295152
-290.528693
-749.704146
701.669394
-68.107565
-243.768365
292.127489
-19.353268
895.211675
-40.821304
-1009.939577
43.568740
197.859755
315.060548
141.431675
-220.143583
-238.496715
-79.104260
-52.061815
-151.732314
488.019745
-306.631263
1130.119301
-82.539306
-52.570766
908.554593
262.306833
35.053131
35.656611
-793.733505
2701.748263
-37.196990
477.156512
61.452774
854.242414
0.205568
-46.870862
-655.103593
294.322584
49.366832
24.898369
780.736014
-233.858646
146.472928
1044.909318
232.153423
265.315834
26.285644
-3.787612
-66.669106
50.951924
-170.606703
646.706781
37.767836
-250.409335
459.936652
82.917901
450.760792
-492.710959
28.045904
-171.460074
350.920058
263.931148
-1494.378277
117.687312
2.474329
348.573079
369.756670
-116.688760
84.813490
-55.449607
-131.086881
-1103.086466
341.115300
3.019876
-605.499319
-459.395749
-704.193819
268.155119
41.480421
106.955918
-207.708875
-418.112793
-10.411922
-285.410776
-28.422016
-166.910037
-267.706294
-366.816164
-214.359766
264.767978
-35.759276
46.210126
24.685759
167.937952
117.785406
-1227.982007
-40.458380
-345.517798
-287.139316
-1827.603414
42.758214
-111.623924
182.787830
110.411627
-948.797433
718.786680
-843.701355
813.896608
41.843881
-572.049827
-78.084298
37.857671
61.079500
-606.220837
-63.435649
-970.437737
551.290712
60.564457
303.590324
384.208017
-1039.768331
-818.268468
18.423053
-1.008395
-40.238875
-84.169240
-385.010442
153.657831
-1406.871184
504.412114
-131.710583
405.590529
-528.284182
960.935717
-9.796766
-306.088457
42.512500
512.695513
931.406243
92.919140
125.308724
-124.714679
-206.101534
-92.079824
-307.892800
354.683685
-631.358375
357.196017
357.069488
-39.536164
172.042119
-203.966446
232.557046
-196.155654
171.907482
-266.051346
75.527765
-393.205784
180.416149
633.203566
-476.286687
181.116842
780.183080
-98.981988
-267.940808
2868.766434
-154.554452
-350.772418
71.470260
853.181136
87.214650
270.375833
202.945119
91.020682
-351.297339
-54.467635
-161.462973
-5.489382
-274.138905
968.814447
324.388818
-167.823279
14.169726
-244.114938
-195.567222
137.278509
310.078428
-3.897342
-0.154029
59.355126
-11.272929
-234.374679
308.095786
207.117457
146.289641
1131.673168
-729.997030
-506.864558
167.240509
-14.434006
-160.337015
72.814211
-23.229478
-128.206549
362.134420
-31.983933
667.681407
-346.822961
279.928068
-51.949524
-132.409970
56.407598
622.931422
-1594.260445
161.413849
305.268170
-138.409595
24.024242
539.309085
127.909758
-49.934357
672.791022
-265.147729
-611.114247
58.571303
-30.630718
-252.233707
25.277305
18.505428
181.822727
95.362006
245.358714
-674.887079
166.029368
-83.853910
-1447.505957
-9.490889
224.915547
681.786720
-731.489235
355.219637
93.758720
-387.222232
201.951763
-114.158890
744.699910
-143.625065
712.299821
-378.558484
602.009032
177.372717
140.696835
-621.665794
-39.065448
-1964.045767
-358.919654
486.646627
472.515157
-33.777157
-257.836267
151.624252
458.142315
-60.948457
113.545042
-276.045932
-104.489001
448.538478
725.237964
440.001530
35.503407
-158.755652
18.243871
300.971518
-1253.593839
-15.908850
-254.088033
-93.753838
82.024616
691.770503
-139.307421
-27.054280
-457.917190
659.574199
593.330304
177.568706
-644.413700
597.639841
8.467647
-378.147221
-41.356219
48.748438
190.970720
-22.503379
41.365146
862.159529
1488.595058
726.932482
-473.051129
-288.811073
-136.864190
-140.886502
232.265414
322.185728
-163.430021
1628.090787
83.190155
-337.281112
-2.219611
244.942699
70.692869
235.375401
599.390715
-80.527515
258.374268
-551.154193
-559.585526
-479.237674
807.467925
-66.506842
258.161512
-375.614367
-1160.267512
543.313411
-323.418567
-83.436509
-233.551142
196.522387
-341.791500
-205.154048
-252.734024
102.879828
-825.828234
154.650231
-451.162996
174.242831
-334.133788
263.741975
116.906926
351.324750
400.099069
-524.615765
-53.339858
-639.025255
716.767713
475.492713
-58.780366
-480.299445
-78.112564
604.532523
-40.553146
-181.772814
144.149793
159.309821
-689.487406
85.926445
-13.477102
40.565654
556.385699
-571.152438
-18.278063
-1.374784
246.806592
-391.608145
120.457274
-157.213314
37.471956
-228.415408
134.329744
-149.310928
-3399.525743
3.748421
439.035621
-340.567002
-100.851874
-166.901405
-30.000420
341.583464
-4478.690000
-328.977213
147.603572
-206.777762
-93.483958
502.478704
-8.363630
717.989501
-25.395736
-119.441520
-149.388247
-534.366858
-706.560079
254.228911
-969.535952
-225.097805
-53.088625
-441.673766
818.074306
-40.392488
-36.424512
-47.572532
-61.198479
135.240728
716.049123
-232.009683
72.868999
662.837862
2.682262
1112.557509
-53.526807
-35.428159
-197.383126
-477.715319
1249.816686
-473.766483
-78.902410
21.893553
804.039682
353.677955
-57.697979
515.960428
534.967535
-688.433969
143.181531
249.700688
125.101933
278.617564
-183.460447
-256.110343
-1628.978935
-464.662055
-236.299272
-445.800986
-143.962406
-9.302567
580.463007
-94.088846
-107.222106
1383.102207
-18.695025
-41.009708
-667.325468
-9.928307
124.621333
-28.003013
-507.360237
-271.260964
1226.519522
118.222784
258.822979
421.944828
44.578328
-153.510504
736.417580
-0.479068
683.508202
-15.709144
92.437556
32.051519
311.828945
201.869030
52.613597
-398.455407
-577.300376
-3142.158131
134.819390
23.450545
30.990344
224.088969
-338.563104
-128.892066
-363.255107
-1007.017404
-97.372568
-94.335025
107.371799
180.135512
387.740237
-643.825371
-56.742606
383.430392
-607.934704
-254.156488
309.199657
611.653235
353.328969
4082.136154
71.902254
23.628607
301.310695
764.290617
38.513047
-453.331838
-358.791600
454.254884
355.753161
440.225296
454.981179
-66.979782
-375.138226
129.089284
4.862408
-104.888541
106.705695
91.550228
74.512076
-408.143283
113.427475
-14.402455
51.551069
-110.691807
671.996002
391.730667
-1200.440449
-2431.194928
-62.179299
-109.003574
693.953174
-500.660123
-13.844340
366.987927
1174.048541
280.595164
-87.594070
-54.900578
82.088499
-31.533122
55.581549
-155.367595
-376.304993
-14.812516
529.370637
-207.213332
44.337195
-844.205325
-43.019076
-224.970012
-311.905869
-136.156642
91.593068
-36.120738
-253.908871
-105.067550
-221.343785
440.846715
-444.249036
-72.999058
-698.461994
15.804416
-187.099335
658.601710
-135.051841
-236.286477
425.455705
-118.746143
248.923539
-236.810183
118.431887
-138.644675
258.372938
-605.268960
239.968492
-618.971498
-217.729504
-838.291479
-429.154761
171.122255
645.135586
