# vtk DataFile Version 2.0
cantilever_tri3_mix
ASCII
DATASET POLYDATA
POINTS 297 float
0.000000 -6.000000 0.000000
48.000000 -6.000000 0.000000
48.000000 6.000000 0.000000
0.000000 6.000000 0.000000
1.500000 -6.000000 0.000000
3.000000 -6.000000 0.000000
4.500000 -6.000000 0.000000
6.000000 -6.000000 0.000000
7.500000 -6.000000 0.000000
9.000000 -6.000000 0.000000
10.500000 -6.000000 0.000000
12.000000 -6.000000 0.000000
13.500000 -6.000000 0.000000
15.000000 -6.000000 0.000000
16.500000 -6.000000 0.000000
18.000000 -6.000000 0.000000
19.500000 -6.000000 0.000000
21.000000 -6.000000 0.000000
22.500000 -6.000000 0.000000
24.000000 -6.000000 0.000000
25.500000 -6.000000 0.000000
27.000000 -6.000000 0.000000
28.500000 -6.000000 0.000000
30.000000 -6.000000 0.000000
31.500000 -6.000000 0.000000
33.000000 -6.000000 0.000000
34.500000 -6.000000 0.000000
36.000000 -6.000000 0.000000
37.500000 -6.000000 0.000000
39.000000 -6.000000 0.000000
40.500000 -6.000000 0.000000
42.000000 -6.000000 0.000000
43.500000 -6.000000 0.000000
45.000000 -6.000000 0.000000
46.500000 -6.000000 0.000000
48.000000 -4.500000 0.000000
48.000000 -3.000000 0.000000
48.000000 -1.500000 0.000000
48.000000 -0.000000 0.000000
48.000000 1.500000 0.000000
48.000000 3.000000 0.000000
48.000000 4.500000 0.000000
46.500000 6.000000 0.000000
45.000000 6.000000 0.000000
43.500000 6.000000 0.000000
42.000000 6.000000 0.000000
40.500000 6.000000 0.000000
39.000000 6.000000 0.000000
37.500000 6.000000 0.000000
36.000000 6.000000 0.000000
34.500000 6.000000 0.000000
33.000000 6.000000 0.000000
31.500000 6.000000 0.000000
30.000000 6.000000 0.000000
28.500000 6.000000 0.000000
27.000000 6.000000 0.000000
25.500000 6.000000 0.000000
24.000000 6.000000 0.000000
22.500000 6.000000 0.000000
21.000000 6.000000 0.000000
19.500000 6.000000 0.000000
18.000000 6.000000 0.000000
16.500000 6.000000 0.000000
15.000000 6.000000 0.000000
13.500000 6.000000 0.000000
12.000000 6.000000 0.000000
10.500000 6.000000 0.000000
9.000000 6.000000 0.000000
7.500000 6.000000 0.000000
6.000000 6.000000 0.000000
4.500000 6.000000 0.000000
3.000000 6.000000 0.000000
1.500000 6.000000 0.000000
0.000000 4.500000 0.000000
0.000000 3.000000 0.000000
0.000000 1.500000 0.000000
0.000000 0.000000 0.000000
0.000000 -1.500000 0.000000
0.000000 -3.000000 0.000000
0.000000 -4.500000 0.000000
1.500000 -4.500000 0.000000
1.500000 -3.000000 0.000000
1.500000 -1.500000 0.000000
1.500000 0.000000 0.000000
1.500000 1.500000 0.000000
1.500000 3.000000 0.000000
1.500000 4.500000 0.000000
3.000000 -4.500000 0.000000
3.000000 -3.000000 0.000000
3.000000 -1.500000 0.000000
3.000000 0.000000 0.000000
3.000000 1.500000 0.000000
3.000000 3.000000 0.000000
3.000000 4.500000 0.000000
4.500000 -4.500000 0.000000
4.500000 -3.000000 0.000000
4.500000 -1.500000 0.000000
4.500000 0.000000 0.000000
4.500000 1.500000 0.000000
4.500000 3.000000 0.000000
4.500000 4.500000 0.000000
6.000000 -4.500000 0.000000
6.000000 -3.000000 0.000000
6.000000 -1.500000 0.000000
6.000000 0.000000 0.000000
6.000000 1.500000 0.000000
6.000000 3.000000 0.000000
6.000000 4.500000 0.000000
7.500000 -4.500000 0.000000
7.500000 -3.000000 0.000000
7.500000 -1.500000 0.000000
7.500000 0.000000 0.000000
7.500000 1.500000 0.000000
7.500000 3.000000 0.000000
7.500000 4.500000 0.000000
9.000000 -4.500000 0.000000
9.000000 -3.000000 0.000000
9.000000 -1.500000 0.000000
9.000000 0.000000 0.000000
9.000000 1.500000 0.000000
9.000000 3.000000 0.000000
9.000000 4.500000 0.000000
10.500000 -4.500000 0.000000
10.500000 -3.000000 0.000000
10.500000 -1.500000 0.000000
10.500000 0.000000 0.000000
10.500000 1.500000 0.000000
10.500000 3.000000 0.000000
10.500000 4.500000 0.000000
12.000000 -4.500000 0.000000
12.000000 -3.000000 0.000000
12.000000 -1.500000 0.000000
12.000000 0.000000 0.000000
12.000000 1.500000 0.000000
12.000000 3.000000 0.000000
12.000000 4.500000 0.000000
13.500000 -4.500000 0.000000
13.500000 -3.000000 0.000000
13.500000 -1.500000 0.000000
13.500000 0.000000 0.000000
13.500000 1.500000 0.000000
13.500000 3.000000 0.000000
13.500000 4.500000 0.000000
15.000000 -4.500000 0.000000
15.000000 -3.000000 0.000000
15.000000 -1.500000 0.000000
15.000000 0.000000 0.000000
15.000000 1.500000 0.000000
15.000000 3.000000 0.000000
15.000000 4.500000 0.000000
16.500000 -4.500000 0.000000
16.500000 -3.000000 0.000000
16.500000 -1.500000 0.000000
16.500000 0.000000 0.000000
16.500000 1.500000 0.000000
16.500000 3.000000 0.000000
16.500000 4.500000 0.000000
18.000000 -4.500000 0.000000
18.000000 -3.000000 0.000000
18.000000 -1.500000 0.000000
18.000000 0.000000 0.000000
18.000000 1.500000 0.000000
18.000000 3.000000 0.000000
18.000000 4.500000 0.000000
19.500000 -4.500000 0.000000
19.500000 -3.000000 0.000000
19.500000 -1.500000 0.000000
19.500000 0.000000 0.000000
19.500000 1.500000 0.000000
19.500000 3.000000 0.000000
19.500000 4.500000 0.000000
21.000000 -4.500000 0.000000
21.000000 -3.000000 0.000000
21.000000 -1.500000 0.000000
21.000000 0.000000 0.000000
21.000000 1.500000 0.000000
21.000000 3.000000 0.000000
21.000000 4.500000 0.000000
22.500000 -4.500000 0.000000
22.500000 -3.000000 0.000000
22.500000 -1.500000 0.000000
22.500000 0.000000 0.000000
22.500000 1.500000 0.000000
22.500000 3.000000 0.000000
22.500000 4.500000 0.000000
24.000000 -4.500000 0.000000
24.000000 -3.000000 0.000000
24.000000 -1.500000 0.000000
24.000000 0.000000 0.000000
24.000000 1.500000 0.000000
24.000000 3.000000 0.000000
24.000000 4.500000 0.000000
25.500000 -4.500000 0.000000
25.500000 -3.000000 0.000000
25.500000 -1.500000 0.000000
25.500000 -0.000000 0.000000
25.500000 1.500000 0.000000
25.500000 3.000000 0.000000
25.500000 4.500000 0.000000
27.000000 -4.500000 0.000000
27.000000 -3.000000 0.000000
27.000000 -1.500000 0.000000
27.000000 -0.000000 0.000000
27.000000 1.500000 0.000000
27.000000 3.000000 0.000000
27.000000 4.500000 0.000000
28.500000 -4.500000 0.000000
28.500000 -3.000000 0.000000
28.500000 -1.500000 0.000000
28.500000 -0.000000 0.000000
28.500000 1.500000 0.000000
28.500000 3.000000 0.000000
28.500000 4.500000 0.000000
30.000000 -4.500000 0.000000
30.000000 -3.000000 0.000000
30.000000 -1.500000 0.000000
30.000000 -0.000000 0.000000
30.000000 1.500000 0.000000
30.000000 3.000000 0.000000
30.000000 4.500000 0.000000
31.500000 -4.500000 0.000000
31.500000 -3.000000 0.000000
31.500000 -1.500000 0.000000
31.500000 -0.000000 0.000000
31.500000 1.500000 0.000000
31.500000 3.000000 0.000000
31.500000 4.500000 0.000000
33.000000 -4.500000 0.000000
33.000000 -3.000000 0.000000
33.000000 -1.500000 0.000000
33.000000 -0.000000 0.000000
33.000000 1.500000 0.000000
33.000000 3.000000 0.000000
33.000000 4.500000 0.000000
34.500000 -4.500000 0.000000
34.500000 -3.000000 0.000000
34.500000 -1.500000 0.000000
34.500000 -0.000000 0.000000
34.500000 1.500000 0.000000
34.500000 3.000000 0.000000
34.500000 4.500000 0.000000
36.000000 -4.500000 0.000000
36.000000 -3.000000 0.000000
36.000000 -1.500000 0.000000
36.000000 -0.000000 0.000000
36.000000 1.500000 0.000000
36.000000 3.000000 0.000000
36.000000 4.500000 0.000000
37.500000 -4.500000 0.000000
37.500000 -3.000000 0.000000
37.500000 -1.500000 0.000000
37.500000 -0.000000 0.000000
37.500000 1.500000 0.000000
37.500000 3.000000 0.000000
37.500000 4.500000 0.000000
39.000000 -4.500000 0.000000
39.000000 -3.000000 0.000000
39.000000 -1.500000 0.000000
39.000000 -0.000000 0.000000
39.000000 1.500000 0.000000
39.000000 3.000000 0.000000
39.000000 4.500000 0.000000
40.500000 -4.500000 0.000000
40.500000 -3.000000 0.000000
40.500000 -1.500000 0.000000
40.500000 -0.000000 0.000000
40.500000 1.500000 0.000000
40.500000 3.000000 0.000000
40.500000 4.500000 0.000000
42.000000 -4.500000 0.000000
42.000000 -3.000000 0.000000
42.000000 -1.500000 0.000000
42.000000 -0.000000 0.000000
42.000000 1.500000 0.000000
42.000000 3.000000 0.000000
42.000000 4.500000 0.000000
43.500000 -4.500000 0.000000
43.500000 -3.000000 0.000000
43.500000 -1.500000 0.000000
43.500000 -0.000000 0.000000
43.500000 1.500000 0.000000
43.500000 3.000000 0.000000
43.500000 4.500000 0.000000
45.000000 -4.500000 0.000000
45.000000 -3.000000 0.000000
45.000000 -1.500000 0.000000
45.000000 -0.000000 0.000000
45.000000 1.500000 0.000000
45.000000 3.000000 0.000000
45.000000 4.500000 0.000000
46.500000 -4.500000 0.000000
46.500000 -3.000000 0.000000
46.500000 -1.500000 0.000000
46.500000 -0.000000 0.000000
46.500000 1.500000 0.000000
46.500000 3.000000 0.000000
46.500000 4.500000 0.000000
POLYGONS 512 2048
3 0 4 79
3 79 4 80
3 79 80 78
3 78 80 81
3 78 81 77
3 77 81 82
3 77 82 76
3 76 82 83
3 76 83 75
3 75 83 84
3 75 84 74
3 74 84 85
3 74 85 73
3 73 85 86
3 73 86 3
3 3 86 72
3 4 5 80
3 80 5 87
3 80 87 81
3 81 87 88
3 81 88 82
3 82 88 89
3 82 89 83
3 83 89 90
3 83 90 84
3 84 90 91
3 84 91 85
3 85 91 92
3 85 92 86
3 86 92 93
3 86 93 72
3 72 93 71
3 5 6 87
3 87 6 94
3 87 94 88
3 88 94 95
3 88 95 89
3 89 95 96
3 89 96 90
3 90 96 97
3 90 97 91
3 91 97 98
3 91 98 92
3 92 98 99
3 92 99 93
3 93 99 100
3 93 100 71
3 71 100 70
3 6 7 94
3 94 7 101
3 94 101 95
3 95 101 102
3 95 102 96
3 96 102 103
3 96 103 97
3 97 103 104
3 97 104 98
3 98 104 105
3 98 105 99
3 99 105 106
3 99 106 100
3 100 106 107
3 100 107 70
3 70 107 69
3 7 8 101
3 101 8 108
3 101 108 102
3 102 108 109
3 102 109 103
3 103 109 110
3 103 110 104
3 104 110 111
3 104 111 105
3 105 111 112
3 105 112 106
3 106 112 113
3 106 113 107
3 107 113 114
3 107 114 69
3 69 114 68
3 8 9 108
3 108 9 115
3 108 115 109
3 109 115 116
3 109 116 110
3 110 116 117
3 110 117 111
3 111 117 118
3 111 118 112
3 112 118 119
3 112 119 113
3 113 119 120
3 113 120 114
3 114 120 121
3 114 121 68
3 68 121 67
3 9 10 115
3 115 10 122
3 115 122 116
3 116 122 123
3 116 123 117
3 117 123 124
3 117 124 118
3 118 124 125
3 118 125 119
3 119 125 126
3 119 126 120
3 120 126 127
3 120 127 121
3 121 127 128
3 121 128 67
3 67 128 66
3 10 11 122
3 122 11 129
3 122 129 123
3 123 129 130
3 123 130 124
3 124 130 131
3 124 131 125
3 125 131 132
3 125 132 126
3 126 132 133
3 126 133 127
3 127 133 134
3 127 134 128
3 128 134 135
3 128 135 66
3 66 135 65
3 11 12 129
3 129 12 136
3 129 136 130
3 130 136 137
3 130 137 131
3 131 137 138
3 131 138 132
3 132 138 139
3 132 139 133
3 133 139 140
3 133 140 134
3 134 140 141
3 134 141 135
3 135 141 142
3 135 142 65
3 65 142 64
3 12 13 136
3 136 13 143
3 136 143 137
3 137 143 144
3 137 144 138
3 138 144 145
3 138 145 139
3 139 145 146
3 139 146 140
3 140 146 147
3 140 147 141
3 141 147 148
3 141 148 142
3 142 148 149
3 142 149 64
3 64 149 63
3 13 14 143
3 143 14 150
3 143 150 144
3 144 150 151
3 144 151 145
3 145 151 152
3 145 152 146
3 146 152 153
3 146 153 147
3 147 153 154
3 147 154 148
3 148 154 155
3 148 155 149
3 149 155 156
3 149 156 63
3 63 156 62
3 14 15 150
3 150 15 157
3 150 157 151
3 151 157 158
3 151 158 152
3 152 158 159
3 152 159 153
3 153 159 160
3 153 160 154
3 154 160 161
3 154 161 155
3 155 161 162
3 155 162 156
3 156 162 163
3 156 163 62
3 62 163 61
3 15 16 157
3 157 16 164
3 157 164 158
3 158 164 165
3 158 165 159
3 159 165 166
3 159 166 160
3 160 166 167
3 160 167 161
3 161 167 168
3 161 168 162
3 162 168 169
3 162 169 163
3 163 169 170
3 163 170 61
3 61 170 60
3 16 17 164
3 164 17 171
3 164 171 165
3 165 171 172
3 165 172 166
3 166 172 173
3 166 173 167
3 167 173 174
3 167 174 168
3 168 174 175
3 168 175 169
3 169 175 176
3 169 176 170
3 170 176 177
3 170 177 60
3 60 177 59
3 17 18 171
3 171 18 178
3 171 178 172
3 172 178 179
3 172 179 173
3 173 179 180
3 173 180 174
3 174 180 181
3 174 181 175
3 175 181 182
3 175 182 176
3 176 182 183
3 176 183 177
3 177 183 184
3 177 184 59
3 59 184 58
3 18 19 178
3 178 19 185
3 178 185 179
3 179 185 186
3 179 186 180
3 180 186 187
3 180 187 181
3 181 187 188
3 181 188 182
3 182 188 189
3 182 189 183
3 183 189 190
3 183 190 184
3 184 190 191
3 184 191 58
3 58 191 57
3 19 20 185
3 185 20 192
3 185 192 186
3 186 192 193
3 186 193 187
3 187 193 194
3 187 194 188
3 188 194 195
3 188 195 189
3 189 195 196
3 189 196 190
3 190 196 197
3 190 197 191
3 191 197 198
3 191 198 57
3 57 198 56
3 20 21 192
3 192 21 199
3 192 199 193
3 193 199 200
3 193 200 194
3 194 200 201
3 194 201 195
3 195 201 202
3 195 202 196
3 196 202 203
3 196 203 197
3 197 203 204
3 197 204 198
3 198 204 205
3 198 205 56
3 56 205 55
3 21 22 199
3 199 22 206
3 199 206 200
3 200 206 207
3 200 207 201
3 201 207 208
3 201 208 202
3 202 208 209
3 202 209 203
3 203 209 210
3 203 210 204
3 204 210 211
3 204 211 205
3 205 211 212
3 205 212 55
3 55 212 54
3 22 23 206
3 206 23 213
3 206 213 207
3 207 213 214
3 207 214 208
3 208 214 215
3 208 215 209
3 209 215 216
3 209 216 210
3 210 216 217
3 210 217 211
3 211 217 218
3 211 218 212
3 212 218 219
3 212 219 54
3 54 219 53
3 23 24 213
3 213 24 220
3 213 220 214
3 214 220 221
3 214 221 215
3 215 221 222
3 215 222 216
3 216 222 223
3 216 223 217
3 217 223 224
3 217 224 218
3 218 224 225
3 218 225 219
3 219 225 226
3 219 226 53
3 53 226 52
3 24 25 220
3 220 25 227
3 220 227 221
3 221 227 228
3 221 228 222
3 222 228 229
3 222 229 223
3 223 229 230
3 223 230 224
3 224 230 231
3 224 231 225
3 225 231 232
3 225 232 226
3 226 232 233
3 226 233 52
3 52 233 51
3 25 26 227
3 227 26 234
3 227 234 228
3 228 234 235
3 228 235 229
3 229 235 236
3 229 236 230
3 230 236 237
3 230 237 231
3 231 237 238
3 231 238 232
3 232 238 239
3 232 239 233
3 233 239 240
3 233 240 51
3 51 240 50
3 26 27 234
3 234 27 241
3 234 241 235
3 235 241 242
3 235 242 236
3 236 242 243
3 236 243 237
3 237 243 244
3 237 244 238
3 238 244 245
3 238 245 239
3 239 245 246
3 239 246 240
3 240 246 247
3 240 247 50
3 50 247 49
3 27 28 241
3 241 28 248
3 241 248 242
3 242 248 249
3 242 249 243
3 243 249 250
3 243 250 244
3 244 250 251
3 244 251 245
3 245 251 252
3 245 252 246
3 246 252 253
3 246 253 247
3 247 253 254
3 247 254 49
3 49 254 48
3 28 29 248
3 248 29 255
3 248 255 249
3 249 255 256
3 249 256 250
3 250 256 257
3 250 257 251
3 251 257 258
3 251 258 252
3 252 258 259
3 252 259 253
3 253 259 260
3 253 260 254
3 254 260 261
3 254 261 48
3 48 261 47
3 29 30 255
3 255 30 262
3 255 262 256
3 256 262 263
3 256 263 257
3 257 263 264
3 257 264 258
3 258 264 265
3 258 265 259
3 259 265 266
3 259 266 260
3 260 266 267
3 260 267 261
3 261 267 268
3 261 268 47
3 47 268 46
3 30 31 262
3 262 31 269
3 262 269 263
3 263 269 270
3 263 270 264
3 264 270 271
3 264 271 265
3 265 271 272
3 265 272 266
3 266 272 273
3 266 273 267
3 267 273 274
3 267 274 268
3 268 274 275
3 268 275 46
3 46 275 45
3 31 32 269
3 269 32 276
3 269 276 270
3 270 276 277
3 270 277 271
3 271 277 278
3 271 278 272
3 272 278 279
3 272 279 273
3 273 279 280
3 273 280 274
3 274 280 281
3 274 281 275
3 275 281 282
3 275 282 45
3 45 282 44
3 32 33 276
3 276 33 283
3 276 283 277
3 277 283 284
3 277 284 278
3 278 284 285
3 278 285 279
3 279 285 286
3 279 286 280
3 280 286 287
3 280 287 281
3 281 287 288
3 281 288 282
3 282 288 289
3 282 289 44
3 44 289 43
3 33 34 283
3 283 34 290
3 283 290 284
3 284 290 291
3 284 291 285
3 285 291 292
3 285 292 286
3 286 292 293
3 286 293 287
3 287 293 294
3 287 294 288
3 288 294 295
3 288 295 289
3 289 295 296
3 289 296 43
3 43 296 42
3 34 1 290
3 290 1 35
3 290 35 291
3 291 35 36
3 291 36 292
3 292 36 37
3 292 37 293
3 293 37 38
3 293 38 294
3 294 38 39
3 294 39 295
3 295 39 40
3 295 40 296
3 296 40 41
3 296 41 42
3 42 41 2
CELL_DATA 512
SCALARS PRESSURE float 1
LOOKUP_TABLE default
64419897574.849792
-258441532460.402191
154433081665.635559
-204250674895.282837
118283296318.177750
-283283878270.807861
152298537566.465729
-244414950794.737305
162733336878.024323
-311206844559.541687
160387083082.423767
-275403955589.159912
160905902646.479095
-365462559563.219482
183128305307.112640
-184237818775.153839
154100961535.582764
-205024618320.136292
251286774432.357178
-106262191891.748886
217330978805.018616
-158751187968.925842
248524322526.892456
-166468215692.693726
208100143072.909454
-162199314893.933960
297197159197.759033
-160696811753.955841
225049029564.844574
-199592474929.771912
360084393760.848511
-161253448171.104767
149586208519.752441
-276302877707.800049
152562609681.897949
-166901825599.097198
161916760937.076569
-214732603270.859100
194418726507.930573
-179612916960.060577
191138263919.115723
-239400816235.124481
176006278670.554779
-219548614714.670197
153753972761.478333
-272483224062.376923
270255269520.705048
-166213833744.641327
107054765496.112213
-187949328427.289001
239649054267.071136
-126626322098.583389
161280667311.085876
-216736940898.245361
194850769230.026459
-162378707709.948822
185034194317.388580
-199251176023.451233
231454350932.873749
-146839148832.503143
183720788339.466187
-250242721491.210724
284662723172.650513
-137424142160.623581
101965847367.152710
-199416647621.453156
207929624658.380585
-145327368697.954803
151671863241.615143
-173279968874.272003
202591664096.169891
-175310663217.413696
156111170308.315735
-206361829799.587402
217960886562.981445
-177255329597.320282
146751439899.691589
-246442529467.407104
267327458342.559753
-154904657585.170868
126793820401.934753
-212403792458.940155
156800819325.649017
-150237753409.975555
152161277329.623383
-171162470332.561615
186410976494.941528
-159133107816.384094
168222275357.287964
-185036890835.746826
208774836670.730835
-173170547839.789764
152392718589.088898
-224579091023.186066
263206254408.198517
-140398907853.975372
108554946300.424561
-181803381511.937286
183296369822.195984
-107609297457.827072
160049299455.357727
-183520651636.174103
174965095622.170654
-157223101902.741821
162475524837.592773
-182589706647.006042
190342461942.972687
-165205736841.203186
150649705100.662415
-217841996203.240753
254987482657.476135
-138723944367.163330
84394865934.468719
-173392678451.395294
187803170395.453308
-127640564681.320175
124226398486.823395
-170972402467.194885
167322548035.796326
-146964133415.047852
160126028855.384064
-175142722711.695068
189136383980.549133
-154315781513.374725
145146421967.858673
-218303236996.518158
241901019412.676880
-125794686895.395538
98874678135.584335
-176268212788.412811
159615879768.860107
-110800647842.448227
134148145984.611816
-155637206111.922913
165959033569.244415
-147211146293.466736
147945336401.270630
-171083625715.129669
184055208950.932404
-145248540125.339691
133979072479.931549
-212033514890.652771
235433881568.889130
-130126769236.175934
87553605083.240463
-161303046899.647278
160085648624.864227
-107470407475.874405
128678042753.756409
-154515181766.697754
151460815534.061584
-137920327047.732788
142043905775.566711
-163938646885.645203
182100758524.537506
-136577483636.684479
128774116368.849976
-204055544376.316528
223868440745.751251
-119834162937.768005
83463430796.678696
-153733567618.676605
150401687478.892212
-105053405889.074310
119015281962.100067
-144305734952.249817
148422543362.584534
-129714059709.408051
134625377925.388779
-160524926961.658813
174805196380.412872
-129737665837.702118
122585600565.459900
-196653465325.327881
220485854699.411224
-110544824097.869492
80394567967.411530
-143592927970.839264
142093625433.446014
-98808507516.971970
115123803105.900833
-136952317820.421204
142828846082.172363
-124737245013.573013
125498991149.130127
-153068224199.490326
168918131699.463074
-123360050636.759460
116330740693.868652
-189432484396.081451
208132798503.250458
-116020983915.544189
76756424214.418961
-136885231167.954132
133096857052.242630
-94232353162.233978
108440332419.704453
-129801535569.362686
134813736750.187225
-118805996260.714951
120034732373.095184
-142751314826.706146
161458024329.268738
-122308543807.528244
112175263571.568634
-177724515668.814117
200957293127.980591
-105146088486.600616
68836763894.620316
-129070282109.336884
124850362253.145676
-86130042928.919128
103937911405.924057
-122388344443.748917
128086387458.472672
-113130663720.762192
117286470933.828644
-134676858574.834976
149744783027.306244
-119705269040.917847
105046067413.588821
-170599884501.503510
191617269101.198303
-103878506575.656509
65167794878.419640
-117625951493.378128
120466024724.879898
-82016805186.631760
95636742017.383591
-119213847175.602051
117132459554.942780
-107284742593.767838
110900686733.274872
-126575695589.142532
143148809493.031616
-108257725494.396423
106794775434.189056
-158743197514.033600
185766020786.399719
-94037355637.537506
60342258322.899872
-109361455923.294724
112175560432.023621
-76795151451.183624
88955983488.661545
-107191058808.710205
114675207562.174225
-100129632330.231598
105283433633.172363
-117059917755.074249
134781945038.216049
-114727387268.576233
95574197524.795670
-155351782760.803162
170658458481.670380
-96320014106.618698
55588598520.105621
-100833752507.905273
102817495422.969315
-74484692922.096649
83407657682.499756
-99733432677.045700
104800000888.275192
-94810794493.302231
102845503468.064972
-108099608383.643951
122513360325.700516
-112689174821.411270
95556770195.469101
-123447965637.742233
171799250032.755798
-99016002395.234116
51683936575.989159
-92903703807.183670
91615501140.186874
-68271569916.800911
81993991169.969299
-89864910942.440430
97818116507.668091
-87957060854.619537
95717103750.847931
-113077132991.885483
101155400867.245850
-93952743524.027863
102900694099.849503
-131999345264.282150
155104097413.098694
-85718707734.343597
48461402639.494545
-84973792835.727295
82191112884.374115
-63219595366.104561
75464616804.535416
-85049813764.593002
92659534070.057831
-78713110134.045670
86826545877.542557
-100144731431.868118
116350132870.902374
-79667991416.190567
83978338264.161377
-144762269848.428772
136094445231.791779
-67602481933.695099
42965850841.089241
-74349729362.576935
77540073602.028503
-56740195717.480293
67212862257.202972
-79407781446.309326
85790447929.689163
-76128097990.836563
72234126370.941315
-96418565972.542480
110196119975.585907
-80614760939.939407
73998908559.063095
-115914010690.956512
147712615157.580872
-82944674186.006363
38307689941.081558
-67070535119.155762
70312198915.830048
-50303583791.963272
60963553629.442848
-70955678801.221344
79948181031.966873
-68134228795.235771
74771881478.080902
-82718303597.464523
96780434435.411819
-79577900172.675980
70388180316.180801
-114299735808.123978
130378964278.995728
-65069646464.898720
31368412323.302288
-59148778491.891663
61964226471.974762
-45539629740.663460
54421609043.670967
-64820794479.734985
67970903934.406441
-65469178138.882675
69022068381.531921
-76013394775.424683
91313736327.577759
-69042387372.585907
65385920350.972176
-106300047931.816498
124165299211.205231
-66101728097.780540
28390409060.134426
-48825475103.635765
55213971469.708015
-39221859518.408501
50035632379.638802
-56260614822.359650
62706320432.364433
-57207068368.596230
61738787054.591026
-71494044051.034515
82406639598.824112
-64417560743.183784
60769339543.826836
-96972183510.560684
113823094983.072754
-63172702014.905380
23857337681.830761
-41872651022.852005
46453461075.773613
-34281669594.166988
42235952151.564125
-50391459288.041046
55931737924.883232
-50333860842.158333
56324334670.544289
-62827128809.365913
75211503133.047150
-58928881512.673470
55791429949.938637
-88605026201.863754
105710541784.385803
-54425012999.241089
17528181995.455849
-32354984518.491554
39664625853.815094
-28985603641.401016
36427333222.224586
-42132804953.829376
48763872634.286308
-45398345627.762878
49635533393.427727
-56202253824.991867
67528973785.750748
-52281212316.749763
50269895105.015221
-81621548716.847366
97905725692.065277
-50542219680.707314
13739159396.391916
-23594453967.902550
30640326169.307556
-24384848450.487049
30924374672.968613
-34151821453.206638
41615835898.964340
-38739614204.251091
43717726738.990387
-49013852701.657097
60987367592.804268
-45598759150.151306
44626701308.661469
-75224215942.905243
87709735310.171951
-46454827939.062805
10441231341.447941
-15735719212.934799
22254322459.996017
-18395610510.580097
25546051764.106133
-27673242766.696831
33715504383.998253
-32902008415.007908
36923293918.039436
-42043373224.275520
53907573058.661621
-41294008793.851692
38072906219.145638
-65699671537.514763
79114728694.882324
-42674597270.004936
3857512492.773403
-6545411594.649057
14767712553.557911
-13466430774.710587
19620343682.129421
-19342679564.190655
27589485362.060486
-25676614275.655285
31120657967.988533
-34177405161.814064
46035793062.424881
-35033045770.912720
35971574977.107994
-53509995867.857132
73334113953.043579
-37517916220.227066
1710957977.678023
1289544954.124701
6465098900.913600
-7995809979.747832
13253172818.871597
-13018518455.881611
20787694651.904629
-18864714742.579922
25360608997.017632
-30201820347.176254
35241409466.023239
-29628539573.820141
28307396674.141899
-51600394877.929054
61035414767.114677
-32053237111.095997
-6114994532.817452
8467014349.129133
-2083720227.279359
-2126720335.142564
6096941438.443566
-7235316650.890347
13145388801.523317
-13255386835.507803
17028331324.315004
-19781846577.661747
35040523286.711937
-19510655286.870926
24647638571.656883
-41862876939.908249
53340993642.125076
-25979222487.379227
-6334588175.212559
20986380160.038921
-5173551381.552289
4889810759.985882
1954476859.490411
2683657587.354995
9345492008.493059
-4511927565.929024
11518150186.107019
-18522439856.580147
21492455130.372635
-22281436163.560181
15476172073.140179
-30194979024.370052
44171129204.626266
-29967532807.475895
-14064006272.049984
14055543759.724686
-20361538696.826492
5715515479.795843
-8755518261.893972
6236426579.805211
-270492924.263536
-2161666087.979788
4255464514.910794
-3034621310.303766
17116192611.309816
-7328741508.723539
21129895021.930351
-21191792308.981556
37496878534.464607
-8713732194.362444
