# vtk DataFile Version 2.0
cantilever_quad4_mix
ASCII
DATASET POLYDATA
POINTS 297 float
0.000000 -6.000000 0.000000
48.000000 -6.000000 0.000000
48.000000 6.000000 0.000000
0.000000 6.000000 0.000000
1.500000 -6.000000 0.000000
3.000000 -6.000000 0.000000
4.500000 -6.000000 0.000000
6.000000 -6.000000 0.000000
7.500000 -6.000000 0.000000
9.000000 -6.000000 0.000000
10.500000 -6.000000 0.000000
12.000000 -6.000000 0.000000
13.500000 -6.000000 0.000000
15.000000 -6.000000 0.000000
16.500000 -6.000000 0.000000
18.000000 -6.000000 0.000000
19.500000 -6.000000 0.000000
21.000000 -6.000000 0.000000
22.500000 -6.000000 0.000000
24.000000 -6.000000 0.000000
25.500000 -6.000000 0.000000
27.000000 -6.000000 0.000000
28.500000 -6.000000 0.000000
30.000000 -6.000000 0.000000
31.500000 -6.000000 0.000000
33.000000 -6.000000 0.000000
34.500000 -6.000000 0.000000
36.000000 -6.000000 0.000000
37.500000 -6.000000 0.000000
39.000000 -6.000000 0.000000
40.500000 -6.000000 0.000000
42.000000 -6.000000 0.000000
43.500000 -6.000000 0.000000
45.000000 -6.000000 0.000000
46.500000 -6.000000 0.000000
48.000000 -4.500000 0.000000
48.000000 -3.000000 0.000000
48.000000 -1.500000 0.000000
48.000000 -0.000000 0.000000
48.000000 1.500000 0.000000
48.000000 3.000000 0.000000
48.000000 4.500000 0.000000
46.500000 6.000000 0.000000
45.000000 6.000000 0.000000
43.500000 6.000000 0.000000
42.000000 6.000000 0.000000
40.500000 6.000000 0.000000
39.000000 6.000000 0.000000
37.500000 6.000000 0.000000
36.000000 6.000000 0.000000
34.500000 6.000000 0.000000
33.000000 6.000000 0.000000
31.500000 6.000000 0.000000
30.000000 6.000000 0.000000
28.500000 6.000000 0.000000
27.000000 6.000000 0.000000
25.500000 6.000000 0.000000
24.000000 6.000000 0.000000
22.500000 6.000000 0.000000
21.000000 6.000000 0.000000
19.500000 6.000000 0.000000
18.000000 6.000000 0.000000
16.500000 6.000000 0.000000
15.000000 6.000000 0.000000
13.500000 6.000000 0.000000
12.000000 6.000000 0.000000
10.500000 6.000000 0.000000
9.000000 6.000000 0.000000
7.500000 6.000000 0.000000
6.000000 6.000000 0.000000
4.500000 6.000000 0.000000
3.000000 6.000000 0.000000
1.500000 6.000000 0.000000
0.000000 4.500000 0.000000
0.000000 3.000000 0.000000
0.000000 1.500000 0.000000
0.000000 0.000000 0.000000
0.000000 -1.500000 0.000000
0.000000 -3.000000 0.000000
0.000000 -4.500000 0.000000
1.500000 -4.500000 0.000000
1.500000 -3.000000 0.000000
1.500000 -1.500000 0.000000
1.500000 0.000000 0.000000
1.500000 1.500000 0.000000
1.500000 3.000000 0.000000
1.500000 4.500000 0.000000
3.000000 -4.500000 0.000000
3.000000 -3.000000 0.000000
3.000000 -1.500000 0.000000
3.000000 0.000000 0.000000
3.000000 1.500000 0.000000
3.000000 3.000000 0.000000
3.000000 4.500000 0.000000
4.500000 -4.500000 0.000000
4.500000 -3.000000 0.000000
4.500000 -1.500000 0.000000
4.500000 0.000000 0.000000
4.500000 1.500000 0.000000
4.500000 3.000000 0.000000
4.500000 4.500000 0.000000
6.000000 -4.500000 0.000000
6.000000 -3.000000 0.000000
6.000000 -1.500000 0.000000
6.000000 0.000000 0.000000
6.000000 1.500000 0.000000
6.000000 3.000000 0.000000
6.000000 4.500000 0.000000
7.500000 -4.500000 0.000000
7.500000 -3.000000 0.000000
7.500000 -1.500000 0.000000
7.500000 0.000000 0.000000
7.500000 1.500000 0.000000
7.500000 3.000000 0.000000
7.500000 4.500000 0.000000
9.000000 -4.500000 0.000000
9.000000 -3.000000 0.000000
9.000000 -1.500000 0.000000
9.000000 0.000000 0.000000
9.000000 1.500000 0.000000
9.000000 3.000000 0.000000
9.000000 4.500000 0.000000
10.500000 -4.500000 0.000000
10.500000 -3.000000 0.000000
10.500000 -1.500000 0.000000
10.500000 0.000000 0.000000
10.500000 1.500000 0.000000
10.500000 3.000000 0.000000
10.500000 4.500000 0.000000
12.000000 -4.500000 0.000000
12.000000 -3.000000 0.000000
12.000000 -1.500000 0.000000
12.000000 0.000000 0.000000
12.000000 1.500000 0.000000
12.000000 3.000000 0.000000
12.000000 4.500000 0.000000
13.500000 -4.500000 0.000000
13.500000 -3.000000 0.000000
13.500000 -1.500000 0.000000
13.500000 0.000000 0.000000
13.500000 1.500000 0.000000
13.500000 3.000000 0.000000
13.500000 4.500000 0.000000
15.000000 -4.500000 0.000000
15.000000 -3.000000 0.000000
15.000000 -1.500000 0.000000
15.000000 0.000000 0.000000
15.000000 1.500000 0.000000
15.000000 3.000000 0.000000
15.000000 4.500000 0.000000
16.500000 -4.500000 0.000000
16.500000 -3.000000 0.000000
16.500000 -1.500000 0.000000
16.500000 0.000000 0.000000
16.500000 1.500000 0.000000
16.500000 3.000000 0.000000
16.500000 4.500000 0.000000
18.000000 -4.500000 0.000000
18.000000 -3.000000 0.000000
18.000000 -1.500000 0.000000
18.000000 0.000000 0.000000
18.000000 1.500000 0.000000
18.000000 3.000000 0.000000
18.000000 4.500000 0.000000
19.500000 -4.500000 0.000000
19.500000 -3.000000 0.000000
19.500000 -1.500000 0.000000
19.500000 0.000000 0.000000
19.500000 1.500000 0.000000
19.500000 3.000000 0.000000
19.500000 4.500000 0.000000
21.000000 -4.500000 0.000000
21.000000 -3.000000 0.000000
21.000000 -1.500000 0.000000
21.000000 0.000000 0.000000
21.000000 1.500000 0.000000
21.000000 3.000000 0.000000
21.000000 4.500000 0.000000
22.500000 -4.500000 0.000000
22.500000 -3.000000 0.000000
22.500000 -1.500000 0.000000
22.500000 0.000000 0.000000
22.500000 1.500000 0.000000
22.500000 3.000000 0.000000
22.500000 4.500000 0.000000
24.000000 -4.500000 0.000000
24.000000 -3.000000 0.000000
24.000000 -1.500000 0.000000
24.000000 -0.000000 0.000000
24.000000 1.500000 0.000000
24.000000 3.000000 0.000000
24.000000 4.500000 0.000000
25.500000 -4.500000 0.000000
25.500000 -3.000000 0.000000
25.500000 -1.500000 0.000000
25.500000 -0.000000 0.000000
25.500000 1.500000 0.000000
25.500000 3.000000 0.000000
25.500000 4.500000 0.000000
27.000000 -4.500000 0.000000
27.000000 -3.000000 0.000000
27.000000 -1.500000 0.000000
27.000000 -0.000000 0.000000
27.000000 1.500000 0.000000
27.000000 3.000000 0.000000
27.000000 4.500000 0.000000
28.500000 -4.500000 0.000000
28.500000 -3.000000 0.000000
28.500000 -1.500000 0.000000
28.500000 -0.000000 0.000000
28.500000 1.500000 0.000000
28.500000 3.000000 0.000000
28.500000 4.500000 0.000000
30.000000 -4.500000 0.000000
30.000000 -3.000000 0.000000
30.000000 -1.500000 0.000000
30.000000 -0.000000 0.000000
30.000000 1.500000 0.000000
30.000000 3.000000 0.000000
30.000000 4.500000 0.000000
31.500000 -4.500000 0.000000
31.500000 -3.000000 0.000000
31.500000 -1.500000 0.000000
31.500000 -0.000000 0.000000
31.500000 1.500000 0.000000
31.500000 3.000000 0.000000
31.500000 4.500000 0.000000
33.000000 -4.500000 0.000000
33.000000 -3.000000 0.000000
33.000000 -1.500000 0.000000
33.000000 -0.000000 0.000000
33.000000 1.500000 0.000000
33.000000 3.000000 0.000000
33.000000 4.500000 0.000000
34.500000 -4.500000 0.000000
34.500000 -3.000000 0.000000
34.500000 -1.500000 0.000000
34.500000 -0.000000 0.000000
34.500000 1.500000 0.000000
34.500000 3.000000 0.000000
34.500000 4.500000 0.000000
36.000000 -4.500000 0.000000
36.000000 -3.000000 0.000000
36.000000 -1.500000 0.000000
36.000000 -0.000000 0.000000
36.000000 1.500000 0.000000
36.000000 3.000000 0.000000
36.000000 4.500000 0.000000
37.500000 -4.500000 0.000000
37.500000 -3.000000 0.000000
37.500000 -1.500000 0.000000
37.500000 -0.000000 0.000000
37.500000 1.500000 0.000000
37.500000 3.000000 0.000000
37.500000 4.500000 0.000000
39.000000 -4.500000 0.000000
39.000000 -3.000000 0.000000
39.000000 -1.500000 0.000000
39.000000 -0.000000 0.000000
39.000000 1.500000 0.000000
39.000000 3.000000 0.000000
39.000000 4.500000 0.000000
40.500000 -4.500000 0.000000
40.500000 -3.000000 0.000000
40.500000 -1.500000 0.000000
40.500000 -0.000000 0.000000
40.500000 1.500000 0.000000
40.500000 3.000000 0.000000
40.500000 4.500000 0.000000
42.000000 -4.500000 0.000000
42.000000 -3.000000 0.000000
42.000000 -1.500000 0.000000
42.000000 -0.000000 0.000000
42.000000 1.500000 0.000000
42.000000 3.000000 0.000000
42.000000 4.500000 0.000000
43.500000 -4.500000 0.000000
43.500000 -3.000000 0.000000
43.500000 -1.500000 0.000000
43.500000 -0.000000 0.000000
43.500000 1.500000 0.000000
43.500000 3.000000 0.000000
43.500000 4.500000 0.000000
45.000000 -4.500000 0.000000
45.000000 -3.000000 0.000000
45.000000 -1.500000 0.000000
45.000000 -0.000000 0.000000
45.000000 1.500000 0.000000
45.000000 3.000000 0.000000
45.000000 4.500000 0.000000
46.500000 -4.500000 0.000000
46.500000 -3.000000 0.000000
46.500000 -1.500000 0.000000
46.500000 -0.000000 0.000000
46.500000 1.500000 0.000000
46.500000 3.000000 0.000000
46.500000 4.500000 0.000000
POLYGONS 256 1280
4 0 4 80 79
4 79 80 81 78
4 78 81 82 77
4 77 82 83 76
4 76 83 84 75
4 75 84 85 74
4 74 85 86 73
4 73 86 72 3
4 4 5 87 80
4 80 87 88 81
4 81 88 89 82
4 82 89 90 83
4 83 90 91 84
4 84 91 92 85
4 85 92 93 86
4 86 93 71 72
4 5 6 94 87
4 87 94 95 88
4 88 95 96 89
4 89 96 97 90
4 90 97 98 91
4 91 98 99 92
4 92 99 100 93
4 93 100 70 71
4 6 7 101 94
4 94 101 102 95
4 95 102 103 96
4 96 103 104 97
4 97 104 105 98
4 98 105 106 99
4 99 106 107 100
4 100 107 69 70
4 7 8 108 101
4 101 108 109 102
4 102 109 110 103
4 103 110 111 104
4 104 111 112 105
4 105 112 113 106
4 106 113 114 107
4 107 114 68 69
4 8 9 115 108
4 108 115 116 109
4 109 116 117 110
4 110 117 118 111
4 111 118 119 112
4 112 119 120 113
4 113 120 121 114
4 114 121 67 68
4 9 10 122 115
4 115 122 123 116
4 116 123 124 117
4 117 124 125 118
4 118 125 126 119
4 119 126 127 120
4 120 127 128 121
4 121 128 66 67
4 10 11 129 122
4 122 129 130 123
4 123 130 131 124
4 124 131 132 125
4 125 132 133 126
4 126 133 134 127
4 127 134 135 128
4 128 135 65 66
4 11 12 136 129
4 129 136 137 130
4 130 137 138 131
4 131 138 139 132
4 132 139 140 133
4 133 140 141 134
4 134 141 142 135
4 135 142 64 65
4 12 13 143 136
4 136 143 144 137
4 137 144 145 138
4 138 145 146 139
4 139 146 147 140
4 140 147 148 141
4 141 148 149 142
4 142 149 63 64
4 13 14 150 143
4 143 150 151 144
4 144 151 152 145
4 145 152 153 146
4 146 153 154 147
4 147 154 155 148
4 148 155 156 149
4 149 156 62 63
4 14 15 157 150
4 150 157 158 151
4 151 158 159 152
4 152 159 160 153
4 153 160 161 154
4 154 161 162 155
4 155 162 163 156
4 156 163 61 62
4 15 16 164 157
4 157 164 165 158
4 158 165 166 159
4 159 166 167 160
4 160 167 168 161
4 161 168 169 162
4 162 169 170 163
4 163 170 60 61
4 16 17 171 164
4 164 171 172 165
4 165 172 173 166
4 166 173 174 167
4 167 174 175 168
4 168 175 176 169
4 169 176 177 170
4 170 177 59 60
4 17 18 178 171
4 171 178 179 172
4 172 179 180 173
4 173 180 181 174
4 174 181 182 175
4 175 182 183 176
4 176 183 184 177
4 177 184 58 59
4 18 19 185 178
4 178 185 186 179
4 179 186 187 180
4 180 187 188 181
4 181 188 189 182
4 182 189 190 183
4 183 190 191 184
4 184 191 57 58
4 19 20 192 185
4 185 192 193 186
4 186 193 194 187
4 187 194 195 188
4 188 195 196 189
4 189 196 197 190
4 190 197 198 191
4 191 198 56 57
4 20 21 199 192
4 192 199 200 193
4 193 200 201 194
4 194 201 202 195
4 195 202 203 196
4 196 203 204 197
4 197 204 205 198
4 198 205 55 56
4 21 22 206 199
4 199 206 207 200
4 200 207 208 201
4 201 208 209 202
4 202 209 210 203
4 203 210 211 204
4 204 211 212 205
4 205 212 54 55
4 22 23 213 206
4 206 213 214 207
4 207 214 215 208
4 208 215 216 209
4 209 216 217 210
4 210 217 218 211
4 211 218 219 212
4 212 219 53 54
4 23 24 220 213
4 213 220 221 214
4 214 221 222 215
4 215 222 223 216
4 216 223 224 217
4 217 224 225 218
4 218 225 226 219
4 219 226 52 53
4 24 25 227 220
4 220 227 228 221
4 221 228 229 222
4 222 229 230 223
4 223 230 231 224
4 224 231 232 225
4 225 232 233 226
4 226 233 51 52
4 25 26 234 227
4 227 234 235 228
4 228 235 236 229
4 229 236 237 230
4 230 237 238 231
4 231 238 239 232
4 232 239 240 233
4 233 240 50 51
4 26 27 241 234
4 234 241 242 235
4 235 242 243 236
4 236 243 244 237
4 237 244 245 238
4 238 245 246 239
4 239 246 247 240
4 240 247 49 50
4 27 28 248 241
4 241 248 249 242
4 242 249 250 243
4 243 250 251 244
4 244 251 252 245
4 245 252 253 246
4 246 253 254 247
4 247 254 48 49
4 28 29 255 248
4 248 255 256 249
4 249 256 257 250
4 250 257 258 251
4 251 258 259 252
4 252 259 260 253
4 253 260 261 254
4 254 261 47 48
4 29 30 262 255
4 255 262 263 256
4 256 263 264 257
4 257 264 265 258
4 258 265 266 259
4 259 266 267 260
4 260 267 268 261
4 261 268 46 47
4 30 31 269 262
4 262 269 270 263
4 263 270 271 264
4 264 271 272 265
4 265 272 273 266
4 266 273 274 267
4 267 274 275 268
4 268 275 45 46
4 31 32 276 269
4 269 276 277 270
4 270 277 278 271
4 271 278 279 272
4 272 279 280 273
4 273 280 281 274
4 274 281 282 275
4 275 282 44 45
4 32 33 283 276
4 276 283 284 277
4 277 284 285 278
4 278 285 286 279
4 279 286 287 280
4 280 287 288 281
4 281 288 289 282
4 282 289 43 44
4 33 34 290 283
4 283 290 291 284
4 284 291 292 285
4 285 292 293 286
4 286 293 294 287
4 287 294 295 288
4 288 295 296 289
4 289 296 42 43
4 34 1 35 290
4 290 35 36 291
4 291 36 37 292
4 292 37 38 293
4 293 38 39 294
4 294 39 40 295
4 295 40 41 296
4 296 41 2 42
CELL_DATA 256
SCALARS PRESSURE float 1
LOOKUP_TABLE default
-74089120551.023132
-62869346922.868782
-61122939852.237053
-57475296236.252472
-57820780677.170959
-59038445677.732246
-60528386859.676979
-77879367477.808136
34920914036.557426
3416153524.169229
-6897403769.688864
-2369254971.163374
-5581383224.355489
-10435716368.067415
7897887860.471669
41499717895.583008
43221872447.588661
13072070385.366625
16617343783.514641
23278553271.871628
19323797146.124912
10021419849.203316
13400682621.072577
33101652907.494350
-26946724629.914886
-7743738318.092490
-2065946155.666659
4352717760.713249
5149779305.611935
779099889.438291
-5423425744.637578
-24935421385.356098
7010046909.242356
-790164815.344164
-6623492395.144226
-5084833981.260359
-4928723432.494879
-4544792160.138923
82016300.721396
11531833615.823141
26596637162.487919
3248417119.977799
-2362071192.736506
-1668450862.496238
-2337925331.008280
-3921834911.118683
3120705636.162000
21593481843.168987
-2255719049.525371
-1580095163.374804
-2155632664.741463
2555937821.020247
2666146545.519095
-3312042575.204897
-2650637660.088562
-1875922326.695960
3288748401.451059
145273467.690693
-2743691112.445206
2344450867.732772
2717242175.608606
-1404961273.539130
732799842.001997
6306487046.614593
15035456534.184301
574638760.509718
-3806977537.222229
1230340022.280444
1291784319.843395
-3014481954.766998
1049254685.421194
12747970761.662918
6936119885.621384
-460475395.008364
-2692843787.065727
295780443.164792
-889621365.689582
-4642087991.174124
-1237762975.765074
6099198031.318803
4178566392.913446
119989502.481633
-2668003773.222084
185783302.770983
1702445175.936771
-531343262.042791
1325684166.475662
6150022711.817485
9733466399.477726
752250091.225202
-2418439172.957191
1040668688.051579
1416105582.368909
-2285888458.545543
164415861.116979
8127626816.328722
8273509357.030304
-1043158711.511505
-2711377161.601785
2090202630.573031
1704816773.158750
-3976157111.188701
-1512011607.502945
8310044536.825272
8389646269.170741
-588546893.489224
-3237465422.511741
61045019.788672
555271062.424234
-2692196769.915095
205745764.205566
8300873998.465018
7455083647.184990
-561707572.414971
-2539370461.357767
-7554437.380854
611796650.358845
-1723612738.980877
205241895.840950
7277893014.702954
8280253307.357986
-467035097.958739
-1895818182.225044
1594816403.807997
1190065123.537817
-2749291217.959563
-1064120044.303041
7796728646.285995
7973545567.511196
-1104789894.345963
-2007290664.891028
1470777582.267316
647843511.509247
-2875767301.414170
-598049999.011706
8753683976.898689
8698800593.186682
-774853534.833159
-3315677773.224565
62329961.353258
527310325.605280
-2782549400.892838
-409969299.935408
8133099817.219261
8321492622.532858
-655656002.654243
-3015075958.463253
1504940533.122607
1807765908.976177
-2268060649.064413
-191797438.823929
7616330702.584126
7380359220.656886
-520618512.835855
-2515602074.605318
1600355039.649870
1089726976.624561
-2780684411.698985
-307728241.791209
7781547689.393236
8639154702.647518
-435740182.600336
-3072679872.539371
938125351.178753
-39992418.844993
-3567472486.254260
-182860210.456681
8239641409.614323
8083544373.433406
-419902563.724423
-2620333400.300235
1635843923.406396
297115485.655977
-2888444598.456829
642986579.763005
7834667675.720519
7879170742.879375
-356889448.438796
-2654788715.579926
1500109496.483685
413608859.891984
-2417735500.973199
685461908.707029
6889734342.857527
7415011072.482473
-900920349.003265
-2633730009.697186
1769583340.088120
891920195.963037
-2489777824.534453
382231942.412298
7506970024.710988
9240615645.952770
-384715747.909752
-2927926743.967402
945157492.619092
105601714.294805
-3182463643.695871
45974489.965421
7914436801.106602
7284637271.339860
-912629204.163812
-2568384086.076262
1457962638.723873
788398215.700865
-2625011235.970181
216689598.209353
7682499282.676901
8570186260.666095
65543558.738329
-2453243699.925886
976471328.773388
425733845.468951
-2724325168.765214
164419779.590057
7701433358.554463
7545028659.409135
-1150452964.993014
-3088131774.284508
1692467818.181703
1783756134.148361
-2527283236.240545
-546157827.077401
7694217981.262951
8102645612.842468
-256043598.859879
-2428718364.078789
712148825.726902
6580907.444446
-3141405347.208728
-340209922.535440
8257218909.129216
8006865040.546003
369623969.139301
-2186364769.178988
-301900157.994472
84396786.703467
-537549067.094753
998481473.293860
7058637635.375908
6915747181.263514
420491345.164056
-2026802047.643531
653843745.696632
584876220.195786
-1285770598.621856
-2123430962.490062
7220544516.294820
10517981119.678730
-2953929134.020010
-6419892100.017225
5051119412.210464
3309925514.455283
-6017660134.817492
-1900361043.760571
10655600365.146618
