# vtk DataFile Version 2.0
cantilever_Q4P1_mix
ASCII
DATASET POLYDATA
POINTS 297 float
0.000000 -6.000000 0.000000
48.000000 -6.000000 0.000000
48.000000 6.000000 0.000000
0.000000 6.000000 0.000000
1.500000 -6.000000 0.000000
3.000000 -6.000000 0.000000
4.500000 -6.000000 0.000000
6.000000 -6.000000 0.000000
7.500000 -6.000000 0.000000
9.000000 -6.000000 0.000000
10.500000 -6.000000 0.000000
12.000000 -6.000000 0.000000
13.500000 -6.000000 0.000000
15.000000 -6.000000 0.000000
16.500000 -6.000000 0.000000
18.000000 -6.000000 0.000000
19.500000 -6.000000 0.000000
21.000000 -6.000000 0.000000
22.500000 -6.000000 0.000000
24.000000 -6.000000 0.000000
25.500000 -6.000000 0.000000
27.000000 -6.000000 0.000000
28.500000 -6.000000 0.000000
30.000000 -6.000000 0.000000
31.500000 -6.000000 0.000000
33.000000 -6.000000 0.000000
34.500000 -6.000000 0.000000
36.000000 -6.000000 0.000000
37.500000 -6.000000 0.000000
39.000000 -6.000000 0.000000
40.500000 -6.000000 0.000000
42.000000 -6.000000 0.000000
43.500000 -6.000000 0.000000
45.000000 -6.000000 0.000000
46.500000 -6.000000 0.000000
48.000000 -4.500000 0.000000
48.000000 -3.000000 0.000000
48.000000 -1.500000 0.000000
48.000000 -0.000000 0.000000
48.000000 1.500000 0.000000
48.000000 3.000000 0.000000
48.000000 4.500000 0.000000
46.500000 6.000000 0.000000
45.000000 6.000000 0.000000
43.500000 6.000000 0.000000
42.000000 6.000000 0.000000
40.500000 6.000000 0.000000
39.000000 6.000000 0.000000
37.500000 6.000000 0.000000
36.000000 6.000000 0.000000
34.500000 6.000000 0.000000
33.000000 6.000000 0.000000
31.500000 6.000000 0.000000
30.000000 6.000000 0.000000
28.500000 6.000000 0.000000
27.000000 6.000000 0.000000
25.500000 6.000000 0.000000
24.000000 6.000000 0.000000
22.500000 6.000000 0.000000
21.000000 6.000000 0.000000
19.500000 6.000000 0.000000
18.000000 6.000000 0.000000
16.500000 6.000000 0.000000
15.000000 6.000000 0.000000
13.500000 6.000000 0.000000
12.000000 6.000000 0.000000
10.500000 6.000000 0.000000
9.000000 6.000000 0.000000
7.500000 6.000000 0.000000
6.000000 6.000000 0.000000
4.500000 6.000000 0.000000
3.000000 6.000000 0.000000
1.500000 6.000000 0.000000
0.000000 4.500000 0.000000
0.000000 3.000000 0.000000
0.000000 1.500000 0.000000
0.000000 0.000000 0.000000
0.000000 -1.500000 0.000000
0.000000 -3.000000 0.000000
0.000000 -4.500000 0.000000
1.500000 -4.500000 0.000000
1.500000 -3.000000 0.000000
1.500000 -1.500000 0.000000
1.500000 0.000000 0.000000
1.500000 1.500000 0.000000
1.500000 3.000000 0.000000
1.500000 4.500000 0.000000
3.000000 -4.500000 0.000000
3.000000 -3.000000 0.000000
3.000000 -1.500000 0.000000
3.000000 0.000000 0.000000
3.000000 1.500000 0.000000
3.000000 3.000000 0.000000
3.000000 4.500000 0.000000
4.500000 -4.500000 0.000000
4.500000 -3.000000 0.000000
4.500000 -1.500000 0.000000
4.500000 0.000000 0.000000
4.500000 1.500000 0.000000
4.500000 3.000000 0.000000
4.500000 4.500000 0.000000
6.000000 -4.500000 0.000000
6.000000 -3.000000 0.000000
6.000000 -1.500000 0.000000
6.000000 0.000000 0.000000
6.000000 1.500000 0.000000
6.000000 3.000000 0.000000
6.000000 4.500000 0.000000
7.500000 -4.500000 0.000000
7.500000 -3.000000 0.000000
7.500000 -1.500000 0.000000
7.500000 0.000000 0.000000
7.500000 1.500000 0.000000
7.500000 3.000000 0.000000
7.500000 4.500000 0.000000
9.000000 -4.500000 0.000000
9.000000 -3.000000 0.000000
9.000000 -1.500000 0.000000
9.000000 0.000000 0.000000
9.000000 1.500000 0.000000
9.000000 3.000000 0.000000
9.000000 4.500000 0.000000
10.500000 -4.500000 0.000000
10.500000 -3.000000 0.000000
10.500000 -1.500000 0.000000
10.500000 0.000000 0.000000
10.500000 1.500000 0.000000
10.500000 3.000000 0.000000
10.500000 4.500000 0.000000
12.000000 -4.500000 0.000000
12.000000 -3.000000 0.000000
12.000000 -1.500000 0.000000
12.000000 0.000000 0.000000
12.000000 1.500000 0.000000
12.000000 3.000000 0.000000
12.000000 4.500000 0.000000
13.500000 -4.500000 0.000000
13.500000 -3.000000 0.000000
13.500000 -1.500000 0.000000
13.500000 0.000000 0.000000
13.500000 1.500000 0.000000
13.500000 3.000000 0.000000
13.500000 4.500000 0.000000
15.000000 -4.500000 0.000000
15.000000 -3.000000 0.000000
15.000000 -1.500000 0.000000
15.000000 0.000000 0.000000
15.000000 1.500000 0.000000
15.000000 3.000000 0.000000
15.000000 4.500000 0.000000
16.500000 -4.500000 0.000000
16.500000 -3.000000 0.000000
16.500000 -1.500000 0.000000
16.500000 0.000000 0.000000
16.500000 1.500000 0.000000
16.500000 3.000000 0.000000
16.500000 4.500000 0.000000
18.000000 -4.500000 0.000000
18.000000 -3.000000 0.000000
18.000000 -1.500000 0.000000
18.000000 0.000000 0.000000
18.000000 1.500000 0.000000
18.000000 3.000000 0.000000
18.000000 4.500000 0.000000
19.500000 -4.500000 0.000000
19.500000 -3.000000 0.000000
19.500000 -1.500000 0.000000
19.500000 0.000000 0.000000
19.500000 1.500000 0.000000
19.500000 3.000000 0.000000
19.500000 4.500000 0.000000
21.000000 -4.500000 0.000000
21.000000 -3.000000 0.000000
21.000000 -1.500000 0.000000
21.000000 0.000000 0.000000
21.000000 1.500000 0.000000
21.000000 3.000000 0.000000
21.000000 4.500000 0.000000
22.500000 -4.500000 0.000000
22.500000 -3.000000 0.000000
22.500000 -1.500000 0.000000
22.500000 0.000000 0.000000
22.500000 1.500000 0.000000
22.500000 3.000000 0.000000
22.500000 4.500000 0.000000
24.000000 -4.500000 0.000000
24.000000 -3.000000 0.000000
24.000000 -1.500000 0.000000
24.000000 -0.000000 0.000000
24.000000 1.500000 0.000000
24.000000 3.000000 0.000000
24.000000 4.500000 0.000000
25.500000 -4.500000 0.000000
25.500000 -3.000000 0.000000
25.500000 -1.500000 0.000000
25.500000 -0.000000 0.000000
25.500000 1.500000 0.000000
25.500000 3.000000 0.000000
25.500000 4.500000 0.000000
27.000000 -4.500000 0.000000
27.000000 -3.000000 0.000000
27.000000 -1.500000 0.000000
27.000000 -0.000000 0.000000
27.000000 1.500000 0.000000
27.000000 3.000000 0.000000
27.000000 4.500000 0.000000
28.500000 -4.500000 0.000000
28.500000 -3.000000 0.000000
28.500000 -1.500000 0.000000
28.500000 -0.000000 0.000000
28.500000 1.500000 0.000000
28.500000 3.000000 0.000000
28.500000 4.500000 0.000000
30.000000 -4.500000 0.000000
30.000000 -3.000000 0.000000
30.000000 -1.500000 0.000000
30.000000 -0.000000 0.000000
30.000000 1.500000 0.000000
30.000000 3.000000 0.000000
30.000000 4.500000 0.000000
31.500000 -4.500000 0.000000
31.500000 -3.000000 0.000000
31.500000 -1.500000 0.000000
31.500000 -0.000000 0.000000
31.500000 1.500000 0.000000
31.500000 3.000000 0.000000
31.500000 4.500000 0.000000
33.000000 -4.500000 0.000000
33.000000 -3.000000 0.000000
33.000000 -1.500000 0.000000
33.000000 -0.000000 0.000000
33.000000 1.500000 0.000000
33.000000 3.000000 0.000000
33.000000 4.500000 0.000000
34.500000 -4.500000 0.000000
34.500000 -3.000000 0.000000
34.500000 -1.500000 0.000000
34.500000 -0.000000 0.000000
34.500000 1.500000 0.000000
34.500000 3.000000 0.000000
34.500000 4.500000 0.000000
36.000000 -4.500000 0.000000
36.000000 -3.000000 0.000000
36.000000 -1.500000 0.000000
36.000000 -0.000000 0.000000
36.000000 1.500000 0.000000
36.000000 3.000000 0.000000
36.000000 4.500000 0.000000
37.500000 -4.500000 0.000000
37.500000 -3.000000 0.000000
37.500000 -1.500000 0.000000
37.500000 -0.000000 0.000000
37.500000 1.500000 0.000000
37.500000 3.000000 0.000000
37.500000 4.500000 0.000000
39.000000 -4.500000 0.000000
39.000000 -3.000000 0.000000
39.000000 -1.500000 0.000000
39.000000 -0.000000 0.000000
39.000000 1.500000 0.000000
39.000000 3.000000 0.000000
39.000000 4.500000 0.000000
40.500000 -4.500000 0.000000
40.500000 -3.000000 0.000000
40.500000 -1.500000 0.000000
40.500000 -0.000000 0.000000
40.500000 1.500000 0.000000
40.500000 3.000000 0.000000
40.500000 4.500000 0.000000
42.000000 -4.500000 0.000000
42.000000 -3.000000 0.000000
42.000000 -1.500000 0.000000
42.000000 -0.000000 0.000000
42.000000 1.500000 0.000000
42.000000 3.000000 0.000000
42.000000 4.500000 0.000000
43.500000 -4.500000 0.000000
43.500000 -3.000000 0.000000
43.500000 -1.500000 0.000000
43.500000 -0.000000 0.000000
43.500000 1.500000 0.000000
43.500000 3.000000 0.000000
43.500000 4.500000 0.000000
45.000000 -4.500000 0.000000
45.000000 -3.000000 0.000000
45.000000 -1.500000 0.000000
45.000000 -0.000000 0.000000
45.000000 1.500000 0.000000
45.000000 3.000000 0.000000
45.000000 4.500000 0.000000
46.500000 -4.500000 0.000000
46.500000 -3.000000 0.000000
46.500000 -1.500000 0.000000
46.500000 -0.000000 0.000000
46.500000 1.500000 0.000000
46.500000 3.000000 0.000000
46.500000 4.500000 0.000000
POLYGONS 256 1280
4 0 4 80 79
4 79 80 81 78
4 78 81 82 77
4 77 82 83 76
4 76 83 84 75
4 75 84 85 74
4 74 85 86 73
4 73 86 72 3
4 4 5 87 80
4 80 87 88 81
4 81 88 89 82
4 82 89 90 83
4 83 90 91 84
4 84 91 92 85
4 85 92 93 86
4 86 93 71 72
4 5 6 94 87
4 87 94 95 88
4 88 95 96 89
4 89 96 97 90
4 90 97 98 91
4 91 98 99 92
4 92 99 100 93
4 93 100 70 71
4 6 7 101 94
4 94 101 102 95
4 95 102 103 96
4 96 103 104 97
4 97 104 105 98
4 98 105 106 99
4 99 106 107 100
4 100 107 69 70
4 7 8 108 101
4 101 108 109 102
4 102 109 110 103
4 103 110 111 104
4 104 111 112 105
4 105 112 113 106
4 106 113 114 107
4 107 114 68 69
4 8 9 115 108
4 108 115 116 109
4 109 116 117 110
4 110 117 118 111
4 111 118 119 112
4 112 119 120 113
4 113 120 121 114
4 114 121 67 68
4 9 10 122 115
4 115 122 123 116
4 116 123 124 117
4 117 124 125 118
4 118 125 126 119
4 119 126 127 120
4 120 127 128 121
4 121 128 66 67
4 10 11 129 122
4 122 129 130 123
4 123 130 131 124
4 124 131 132 125
4 125 132 133 126
4 126 133 134 127
4 127 134 135 128
4 128 135 65 66
4 11 12 136 129
4 129 136 137 130
4 130 137 138 131
4 131 138 139 132
4 132 139 140 133
4 133 140 141 134
4 134 141 142 135
4 135 142 64 65
4 12 13 143 136
4 136 143 144 137
4 137 144 145 138
4 138 145 146 139
4 139 146 147 140
4 140 147 148 141
4 141 148 149 142
4 142 149 63 64
4 13 14 150 143
4 143 150 151 144
4 144 151 152 145
4 145 152 153 146
4 146 153 154 147
4 147 154 155 148
4 148 155 156 149
4 149 156 62 63
4 14 15 157 150
4 150 157 158 151
4 151 158 159 152
4 152 159 160 153
4 153 160 161 154
4 154 161 162 155
4 155 162 163 156
4 156 163 61 62
4 15 16 164 157
4 157 164 165 158
4 158 165 166 159
4 159 166 167 160
4 160 167 168 161
4 161 168 169 162
4 162 169 170 163
4 163 170 60 61
4 16 17 171 164
4 164 171 172 165
4 165 172 173 166
4 166 173 174 167
4 167 174 175 168
4 168 175 176 169
4 169 176 177 170
4 170 177 59 60
4 17 18 178 171
4 171 178 179 172
4 172 179 180 173
4 173 180 181 174
4 174 181 182 175
4 175 182 183 176
4 176 183 184 177
4 177 184 58 59
4 18 19 185 178
4 178 185 186 179
4 179 186 187 180
4 180 187 188 181
4 181 188 189 182
4 182 189 190 183
4 183 190 191 184
4 184 191 57 58
4 19 20 192 185
4 185 192 193 186
4 186 193 194 187
4 187 194 195 188
4 188 195 196 189
4 189 196 197 190
4 190 197 198 191
4 191 198 56 57
4 20 21 199 192
4 192 199 200 193
4 193 200 201 194
4 194 201 202 195
4 195 202 203 196
4 196 203 204 197
4 197 204 205 198
4 198 205 55 56
4 21 22 206 199
4 199 206 207 200
4 200 207 208 201
4 201 208 209 202
4 202 209 210 203
4 203 210 211 204
4 204 211 212 205
4 205 212 54 55
4 22 23 213 206
4 206 213 214 207
4 207 214 215 208
4 208 215 216 209
4 209 216 217 210
4 210 217 218 211
4 211 218 219 212
4 212 219 53 54
4 23 24 220 213
4 213 220 221 214
4 214 221 222 215
4 215 222 223 216
4 216 223 224 217
4 217 224 225 218
4 218 225 226 219
4 219 226 52 53
4 24 25 227 220
4 220 227 228 221
4 221 228 229 222
4 222 229 230 223
4 223 230 231 224
4 224 231 232 225
4 225 232 233 226
4 226 233 51 52
4 25 26 234 227
4 227 234 235 228
4 228 235 236 229
4 229 236 237 230
4 230 237 238 231
4 231 238 239 232
4 232 239 240 233
4 233 240 50 51
4 26 27 241 234
4 234 241 242 235
4 235 242 243 236
4 236 243 244 237
4 237 244 245 238
4 238 245 246 239
4 239 246 247 240
4 240 247 49 50
4 27 28 248 241
4 241 248 249 242
4 242 249 250 243
4 243 250 251 244
4 244 251 252 245
4 245 252 253 246
4 246 253 254 247
4 247 254 48 49
4 28 29 255 248
4 248 255 256 249
4 249 256 257 250
4 250 257 258 251
4 251 258 259 252
4 252 259 260 253
4 253 260 261 254
4 254 261 47 48
4 29 30 262 255
4 255 262 263 256
4 256 263 264 257
4 257 264 265 258
4 258 265 266 259
4 259 266 267 260
4 260 267 268 261
4 261 268 46 47
4 30 31 269 262
4 262 269 270 263
4 263 270 271 264
4 264 271 272 265
4 265 272 273 266
4 266 273 274 267
4 267 274 275 268
4 268 275 45 46
4 31 32 276 269
4 269 276 277 270
4 270 277 278 271
4 271 278 279 272
4 272 279 280 273
4 273 280 281 274
4 274 281 282 275
4 275 282 44 45
4 32 33 283 276
4 276 283 284 277
4 277 284 285 278
4 278 285 286 279
4 279 286 287 280
4 280 287 288 281
4 281 288 289 282
4 282 289 43 44
4 33 34 290 283
4 283 290 291 284
4 284 291 292 285
4 285 292 293 286
4 286 293 294 287
4 287 294 295 288
4 288 295 296 289
4 289 296 42 43
4 34 1 35 290
4 290 35 36 291
4 291 36 37 292
4 292 37 38 293
4 293 38 39 294
4 294 39 40 295
4 295 40 41 296
4 296 41 2 42
POINT_DATA 297
VECTORS U float
0.000000 0.000034 0.000000
0.011847 0.066471 0.000000
-0.011847 0.066471 0.000000
-0.000000 0.000034 0.000000
0.000603 0.001144 0.000000
0.001254 0.001468 0.000000
0.001890 0.002000 0.000000
0.002546 0.002637 0.000000
0.003194 0.003448 0.000000
0.003819 0.004417 0.000000
0.004426 0.005541 0.000000
0.005006 0.006815 0.000000
0.005565 0.008230 0.000000
0.006099 0.009783 0.000000
0.006609 0.011466 0.000000
0.007096 0.013275 0.000000
0.007559 0.015201 0.000000
0.007998 0.017240 0.000000
0.008413 0.019387 0.000000
0.008805 0.021634 0.000000
0.009173 0.023976 0.000000
0.009517 0.026407 0.000000
0.009837 0.028921 0.000000
0.010134 0.031512 0.000000
0.010407 0.034174 0.000000
0.010656 0.036902 0.000000
0.010882 0.039689 0.000000
0.011084 0.042530 0.000000
0.011262 0.045418 0.000000
0.011416 0.048347 0.000000
0.011546 0.051312 0.000000
0.011653 0.054307 0.000000
0.011736 0.057325 0.000000
0.011796 0.060362 0.000000
0.011832 0.063410 0.000000
0.008820 0.066466 0.000000
0.005851 0.066464 0.000000
0.002916 0.066463 0.000000
0.000000 0.066463 0.000000
-0.002916 0.066463 0.000000
-0.005851 0.066464 0.000000
-0.008820 0.066466 0.000000
-0.011832 0.063410 0.000000
-0.011796 0.060362 0.000000
-0.011736 0.057325 0.000000
-0.011653 0.054307 0.000000
-0.011546 0.051312 0.000000
-0.011416 0.048347 0.000000
-0.011262 0.045418 0.000000
-0.011084 0.042530 0.000000
-0.010882 0.039689 0.000000
-0.010656 0.036902 0.000000
-0.010407 0.034174 0.000000
-0.010134 0.031512 0.000000
-0.009837 0.028921 0.000000
-0.009517 0.026407 0.000000
-0.009173 0.023976 0.000000
-0.008805 0.021634 0.000000
-0.008413 0.019387 0.000000
-0.007998 0.017240 0.000000
-0.007559 0.015201 0.000000
-0.007096 0.013275 0.000000
-0.006609 0.011466 0.000000
-0.006099 0.009783 0.000000
-0.005565 0.008230 0.000000
-0.005006 0.006815 0.000000
-0.004426 0.005541 0.000000
-0.003819 0.004417 0.000000
-0.003194 0.003448 0.000000
-0.002546 0.002637 0.000000
-0.001890 0.002000 0.000000
-0.001254 0.001468 0.000000
-0.000603 0.001144 0.000000
0.000000 -0.000034 0.000000
-0.000000 0.000034 0.000000
0.000000 -0.000034 0.000000
-0.000000 0.000034 0.000000
-0.000000 -0.000034 0.000000
0.000000 0.000034 0.000000
-0.000000 -0.000034 0.000000
0.000184 0.000424 0.000000
0.000151 0.000022 0.000000
0.000043 -0.000105 0.000000
-0.000000 -0.000216 0.000000
-0.000043 -0.000105 0.000000
-0.000151 0.000022 0.000000
-0.000184 0.000424 0.000000
0.000807 0.000913 0.000000
0.000415 0.000428 0.000000
0.000209 0.000126 0.000000
-0.000000 0.000072 0.000000
-0.000209 0.000126 0.000000
-0.000415 0.000428 0.000000
-0.000807 0.000913 0.000000
0.001325 0.001400 0.000000
0.000827 0.000955 0.000000
0.000378 0.000677 0.000000
-0.000000 0.000562 0.000000
-0.000378 0.000677 0.000000
-0.000827 0.000955 0.000000
-0.001325 0.001400 0.000000
0.001843 0.002063 0.000000
0.001177 0.001640 0.000000
0.000576 0.001370 0.000000
-0.000000 0.001287 0.000000
-0.000576 0.001370 0.000000
-0.001177 0.001640 0.000000
-0.001843 0.002063 0.000000
0.002329 0.002888 0.000000
0.001520 0.002483 0.000000
0.000746 0.002239 0.000000
-0.000000 0.002152 0.000000
-0.000746 0.002239 0.000000
-0.001520 0.002483 0.000000
-0.002329 0.002888 0.000000
0.002804 0.003876 0.000000
0.001836 0.003491 0.000000
0.000909 0.003255 0.000000
-0.000000 0.003179 0.000000
-0.000909 0.003255 0.000000
-0.001836 0.003491 0.000000
-0.002804 0.003876 0.000000
0.003256 0.005022 0.000000
0.002142 0.004650 0.000000
0.001061 0.004428 0.000000
-0.000000 0.004352 0.000000
-0.001061 0.004428 0.000000
-0.002142 0.004650 0.000000
-0.003256 0.005022 0.000000
0.003693 0.006316 0.000000
0.002432 0.005960 0.000000
0.001207 0.005746 0.000000
-0.000000 0.005675 0.000000
-0.001207 0.005746 0.000000
-0.002432 0.005960 0.000000
-0.003693 0.006316 0.000000
0.004111 0.007753 0.000000
0.002711 0.007411 0.000000
0.001347 0.007207 0.000000
-0.000000 0.007138 0.000000
-0.001347 0.007207 0.000000
-0.002711 0.007411 0.000000
-0.004111 0.007753 0.000000
0.004512 0.009326 0.000000
0.002978 0.009000 0.000000
0.001480 0.008804 0.000000
-0.000000 0.008739 0.000000
-0.001480 0.008804 0.000000
-0.002978 0.009000 0.000000
-0.004512 0.009326 0.000000
0.004894 0.011030 0.000000
0.003233 0.010719 0.000000
0.001608 0.010532 0.000000
-0.000000 0.010469 0.000000
-0.001608 0.010532 0.000000
-0.003233 0.010719 0.000000
-0.004894 0.011030 0.000000
0.005260 0.012859 0.000000
0.003477 0.012562 0.000000
0.001729 0.012384 0.000000
-0.000000 0.012325 0.000000
-0.001729 0.012384 0.000000
-0.003477 0.012562 0.000000
-0.005260 0.012859 0.000000
0.005607 0.014806 0.000000
0.003708 0.014525 0.000000
0.001845 0.014356 0.000000
-0.000000 0.014299 0.000000
-0.001845 0.014356 0.000000
-0.003708 0.014525 0.000000
-0.005607 0.014806 0.000000
0.005936 0.016867 0.000000
0.003928 0.016600 0.000000
0.001955 0.016439 0.000000
-0.000000 0.016386 0.000000
-0.001955 0.016439 0.000000
-0.003928 0.016600 0.000000
-0.005936 0.016867 0.000000
0.006248 0.019034 0.000000
0.004135 0.018781 0.000000
0.002059 0.018630 0.000000
-0.000000 0.018580 0.000000
-0.002059 0.018630 0.000000
-0.004135 0.018781 0.000000
-0.006248 0.019034 0.000000
0.006541 0.021301 0.000000
0.004331 0.021064 0.000000
0.002157 0.020922 0.000000
0.000000 0.020874 0.000000
-0.002157 0.020922 0.000000
-0.004331 0.021064 0.000000
-0.006541 0.021301 0.000000
0.006817 0.023664 0.000000
0.004515 0.023442 0.000000
0.002249 0.023308 0.000000
0.000000 0.023264 0.000000
-0.002249 0.023308 0.000000
-0.004515 0.023442 0.000000
-0.006817 0.023664 0.000000
0.007075 0.026116 0.000000
0.004687 0.025908 0.000000
0.002335 0.025784 0.000000
0.000000 0.025742 0.000000
-0.002335 0.025784 0.000000
-0.004687 0.025908 0.000000
-0.007075 0.026116 0.000000
0.007316 0.028651 0.000000
0.004847 0.028458 0.000000
0.002415 0.028342 0.000000
0.000000 0.028304 0.000000
-0.002415 0.028342 0.000000
-0.004847 0.028458 0.000000
-0.007316 0.028651 0.000000
0.007538 0.031263 0.000000
0.004996 0.031085 0.000000
0.002489 0.030978 0.000000
0.000000 0.030942 0.000000
-0.002489 0.030978 0.000000
-0.004996 0.031085 0.000000
-0.007538 0.031263 0.000000
0.007743 0.033946 0.000000
0.005132 0.033783 0.000000
0.002557 0.033685 0.000000
0.000000 0.033652 0.000000
-0.002557 0.033685 0.000000
-0.005132 0.033783 0.000000
-0.007743 0.033946 0.000000
0.007930 0.036695 0.000000
0.005257 0.036546 0.000000
0.002620 0.036457 0.000000
0.000000 0.036427 0.000000
-0.002620 0.036457 0.000000
-0.005257 0.036546 0.000000
-0.007930 0.036695 0.000000
0.008099 0.039502 0.000000
0.005370 0.039369 0.000000
0.002676 0.039289 0.000000
0.000000 0.039262 0.000000
-0.002676 0.039289 0.000000
-0.005370 0.039369 0.000000
-0.008099 0.039502 0.000000
0.008250 0.042364 0.000000
0.005471 0.042245 0.000000
0.002726 0.042174 0.000000
0.000000 0.042150 0.000000
-0.002726 0.042174 0.000000
-0.005471 0.042245 0.000000
-0.008250 0.042364 0.000000
0.008384 0.045272 0.000000
0.005560 0.045168 0.000000
0.002771 0.045106 0.000000
0.000000 0.045085 0.000000
-0.002771 0.045106 0.000000
-0.005560 0.045168 0.000000
-0.008384 0.045272 0.000000
0.008500 0.048223 0.000000
0.005637 0.048134 0.000000
0.002809 0.048080 0.000000
0.000000 0.048062 0.000000
-0.002809 0.048080 0.000000
-0.005637 0.048134 0.000000
-0.008500 0.048223 0.000000
0.008597 0.051208 0.000000
0.005702 0.051134 0.000000
0.002842 0.051090 0.000000
0.000000 0.051075 0.000000
-0.002842 0.051090 0.000000
-0.005702 0.051134 0.000000
-0.008597 0.051208 0.000000
0.008678 0.054224 0.000000
0.005755 0.054165 0.000000
0.002869 0.054129 0.000000
0.000000 0.054117 0.000000
-0.002869 0.054129 0.000000
-0.005755 0.054165 0.000000
-0.008678 0.054224 0.000000
0.008740 0.057263 0.000000
0.005797 0.057219 0.000000
0.002889 0.057192 0.000000
0.000000 0.057183 0.000000
-0.002889 0.057192 0.000000
-0.005797 0.057219 0.000000
-0.008740 0.057263 0.000000
0.008784 0.060320 0.000000
0.005826 0.060291 0.000000
0.002904 0.060273 0.000000
0.000000 0.060267 0.000000
-0.002904 0.060273 0.000000
-0.005826 0.060291 0.000000
-0.008784 0.060320 0.000000
0.008810 0.063390 0.000000
0.005844 0.063375 0.000000
0.002913 0.063366 0.000000
0.000000 0.063363 0.000000
-0.002913 0.063366 0.000000
-0.005844 0.063375 0.000000
-0.008810 0.063390 0.000000
CELL_DATA 256
SCALARS P float 1
LOOKUP_TABLE default
1303.489049
995.936967
436.159755
362.383649
-362.383649
-436.159755
-995.936967
-1303.489049
732.507546
725.324229
535.239908
62.413945
-62.413945
-535.239908
-725.324229
-732.507546
799.461676
600.302614
359.666946
185.868917
-185.868917
-359.666946
-600.302614
-799.461676
768.020367
557.146361
364.199478
91.567823
-91.567823
-364.199478
-557.146361
-768.020367
754.643523
546.463118
315.608160
124.397589
-124.397589
-315.608160
-546.463118
-754.643523
732.669042
518.027420
320.942203
95.531104
-95.531104
-320.942203
-518.027420
-732.669042
704.682412
506.604846
297.208362
106.484212
-106.484212
-297.208362
-506.604846
-704.682412
679.188656
482.217453
293.659327
93.006941
-93.006941
-293.659327
-482.217453
-679.188656
650.286264
466.185493
276.667920
95.424408
-95.424408
-276.667920
-466.185493
-650.286264
623.496163
444.086811
268.419465
87.331208
-87.331208
-268.419465
-444.086811
-623.496163
595.160913
425.929676
254.216620
86.160958
-86.160958
-254.216620
-425.929676
-595.160913
567.880410
405.073896
243.933037
80.360180
-80.360180
-243.933037
-405.073896
-567.880410
539.898663
386.012652
231.012132
77.638446
-77.638446
-231.012132
-386.012652
-539.898663
512.394714
365.749179
219.847235
72.858783
-72.858783
-219.847235
-365.749179
-512.394714
484.574004
346.289842
207.508673
69.452266
-69.452266
-207.508673
-346.289842
-484.574004
456.966114
326.294343
195.953467
65.129508
-65.129508
-195.953467
-326.294343
-456.966114
429.216675
306.656483
183.876576
61.417181
-61.417181
-183.876576
-306.656483
-429.216675
401.561272
286.781392
172.146037
57.299792
-57.299792
-172.146037
-286.781392
-401.561272
373.843992
267.062421
160.187696
53.448897
-53.448897
-160.187696
-267.062421
-373.843992
346.166576
247.242827
148.376206
49.426235
-49.426235
-148.376206
-247.242827
-346.166576
318.464698
227.484920
136.474673
45.508915
-45.508915
-136.474673
-227.484920
-318.464698
290.775787
207.694107
124.621244
41.535347
-41.535347
-124.621244
-207.694107
-290.775787
263.083132
187.912867
112.753891
37.578324
-37.578324
-112.753891
-187.912867
-263.083132
235.385204
168.144319
100.869180
33.641852
-33.641852
-100.869180
-168.144319
-235.385204
207.702997
148.339940
89.037421
29.645387
-29.645387
-89.037421
-148.339940
-207.702997
179.993015
128.605596
77.112030
25.758194
-25.758194
-77.112030
-128.605596
-179.993015
152.342097
108.762810
65.340413
21.699283
-21.699283
-65.340413
-108.762810
-152.342097
124.613011
89.109011
53.331835
17.889207
-17.889207
-53.331835
-89.109011
-124.613011
97.117858
69.141299
41.637645
13.722277
-13.722277
-41.637645
-69.141299
-97.117858
69.281205
49.672205
29.331166
9.881166
-9.881166
-29.331166
-49.672205
-69.281205
42.662961
28.799990
17.276302
5.670182
-5.670182
-17.276302
-28.799990
-42.662961
11.705605
7.889943
4.881032
1.650850
-1.650850
-4.881032
-7.889943
-11.705605
