# vtk DataFile Version 2.0
cantilever_Q4P1_mix
ASCII
DATASET POLYDATA
POINTS 1891 float
0.000000 0.000000 0.000000
48.000000 44.000000 0.000000
48.000000 60.000000 0.000000
0.000000 44.000000 0.000000
2.415003 2.213752 0.000000
4.715005 4.322088 0.000000
6.905484 6.330027 0.000000
8.991654 8.242350 0.000000
10.978483 10.063609 0.000000
12.870701 11.798142 0.000000
14.672813 13.450078 0.000000
16.389110 15.023351 0.000000
18.023679 16.521706 0.000000
19.580411 17.948710 0.000000
21.063014 19.307762 0.000000
22.475016 20.602098 0.000000
23.819780 21.834798 0.000000
25.100507 23.008798 0.000000
26.320248 24.126894 0.000000
27.481905 25.191746 0.000000
28.588246 26.205892 0.000000
29.641903 27.171745 0.000000
30.645387 28.091605 0.000000
31.601086 28.967662 0.000000
32.511275 29.802002 0.000000
33.378121 30.596611 0.000000
34.203690 31.353382 0.000000
34.989945 32.074117 0.000000
35.738760 32.760530 0.000000
36.451917 33.414258 0.000000
37.131114 34.036855 0.000000
37.777969 34.629805 0.000000
38.394021 35.194519 0.000000
38.980737 35.732342 0.000000
39.539514 36.244554 0.000000
40.071683 36.732376 0.000000
40.578510 37.196967 0.000000
41.061203 37.639436 0.000000
41.520910 38.060834 0.000000
41.958727 38.462166 0.000000
42.375695 38.844387 0.000000
42.772807 39.208407 0.000000
43.151010 39.555092 0.000000
43.511202 39.885269 0.000000
43.854243 40.199723 0.000000
44.180948 40.499203 0.000000
44.492096 40.784422 0.000000
44.788428 41.056059 0.000000
45.070648 41.314761 0.000000
45.339430 41.561144 0.000000
45.595412 41.795794 0.000000
45.839205 42.019271 0.000000
46.071388 42.232106 0.000000
46.292515 42.434806 0.000000
46.503112 42.627853 0.000000
46.703681 42.811708 0.000000
46.894699 42.986808 0.000000
47.076621 43.153569 0.000000
47.249880 43.312390 0.000000
47.414888 43.463648 0.000000
47.572039 43.607703 0.000000
47.721707 43.744898 0.000000
47.864247 43.875560 0.000000
48.000000 44.533333 0.000000
48.000000 45.066667 0.000000
48.000000 45.600000 0.000000
48.000000 46.133333 0.000000
48.000000 46.666667 0.000000
48.000000 47.200000 0.000000
48.000000 47.733333 0.000000
48.000000 48.266667 0.000000
48.000000 48.800000 0.000000
48.000000 49.333333 0.000000
48.000000 49.866667 0.000000
48.000000 50.400000 0.000000
48.000000 50.933333 0.000000
48.000000 51.466667 0.000000
48.000000 52.000000 0.000000
48.000000 52.533333 0.000000
48.000000 53.066667 0.000000
48.000000 53.600000 0.000000
48.000000 54.133333 0.000000
48.000000 54.666667 0.000000
48.000000 55.200000 0.000000
48.000000 55.733333 0.000000
48.000000 56.266667 0.000000
48.000000 56.800000 0.000000
48.000000 57.333333 0.000000
48.000000 57.866667 0.000000
48.000000 58.400000 0.000000
48.000000 58.933333 0.000000
48.000000 59.466667 0.000000
47.864247 59.954749 0.000000
47.721707 59.907236 0.000000
47.572039 59.857346 0.000000
47.414888 59.804963 0.000000
47.249880 59.749960 0.000000
47.076621 59.692207 0.000000
46.894699 59.631566 0.000000
46.703681 59.567894 0.000000
46.503112 59.501037 0.000000
46.292515 59.430838 0.000000
46.071388 59.357129 0.000000
45.839205 59.279735 0.000000
45.595412 59.198471 0.000000
45.339430 59.113143 0.000000
45.070648 59.023549 0.000000
44.788428 58.929476 0.000000
44.492096 58.830699 0.000000
44.180948 58.726983 0.000000
43.854243 58.618081 0.000000
43.511202 58.503734 0.000000
43.151010 58.383670 0.000000
42.772807 58.257602 0.000000
42.375695 58.125232 0.000000
41.958726 57.986242 0.000000
41.520910 57.840303 0.000000
41.061203 57.687068 0.000000
40.578510 57.526170 0.000000
40.071683 57.357228 0.000000
39.539514 57.179838 0.000000
38.980737 56.993579 0.000000
38.394021 56.798007 0.000000
37.777969 56.592656 0.000000
37.131114 56.377038 0.000000
36.451917 56.150639 0.000000
35.738760 55.912920 0.000000
34.989945 55.663315 0.000000
34.203690 55.401230 0.000000
33.378121 55.126040 0.000000
32.511275 54.837092 0.000000
31.601085 54.533695 0.000000
30.645387 54.215129 0.000000
29.641903 53.880634 0.000000
28.588246 53.529415 0.000000
27.481905 53.160635 0.000000
26.320248 52.773416 0.000000
25.100507 52.366836 0.000000
23.819780 51.939927 0.000000
22.475016 51.491672 0.000000
21.063014 51.021005 0.000000
19.580411 50.526804 0.000000
18.023679 50.007893 0.000000
16.389110 49.463037 0.000000
14.672813 48.890938 0.000000
12.870701 48.290234 0.000000
10.978483 47.659494 0.000000
8.991654 46.997218 0.000000
6.905484 46.301828 0.000000
4.715005 45.571668 0.000000
2.415003 44.805001 0.000000
0.000000 42.533333 0.000000
0.000000 41.066667 0.000000
0.000000 39.600000 0.000000
0.000000 38.133333 0.000000
0.000000 36.666667 0.000000
0.000000 35.200000 0.000000
0.000000 33.733333 0.000000
0.000000 32.266667 0.000000
0.000000 30.800000 0.000000
0.000000 29.333333 0.000000
0.000000 27.866667 0.000000
0.000000 26.400000 0.000000
0.000000 24.933333 0.000000
0.000000 23.466667 0.000000
0.000000 22.000000 0.000000
0.000000 20.533333 0.000000
0.000000 19.066667 0.000000
0.000000 17.600000 0.000000
0.000000 16.133333 0.000000
0.000000 14.666667 0.000000
0.000000 13.200000 0.000000
0.000000 11.733333 0.000000
0.000000 10.266667 0.000000
0.000000 8.800000 0.000000
0.000000 7.333333 0.000000
0.000000 5.866667 0.000000
0.000000 4.400000 0.000000
0.000000 2.933333 0.000000
0.000000 1.466667 0.000000
2.355989 3.580784 0.000000
2.340181 4.987515 0.000000
2.336165 6.405087 0.000000
2.335222 7.825485 0.000000
2.335016 9.246560 0.000000
2.334974 10.667785 0.000000
2.334965 12.089042 0.000000
2.334964 13.510305 0.000000
2.334963 14.931570 0.000000
2.334963 16.352834 0.000000
2.334963 17.774099 0.000000
2.334963 19.195363 0.000000
2.334963 20.616628 0.000000
2.334963 22.037892 0.000000
2.334963 23.459157 0.000000
2.334963 24.880422 0.000000
2.334963 26.301686 0.000000
2.334963 27.722951 0.000000
2.334963 29.144215 0.000000
2.334963 30.565480 0.000000
2.334963 31.986745 0.000000
2.334963 33.408009 0.000000
2.334963 34.829274 0.000000
2.334963 36.250538 0.000000
2.334963 37.671803 0.000000
2.334964 39.093068 0.000000
2.335038 40.514357 0.000000
2.336808 41.936217 0.000000
2.350781 43.362180 0.000000
4.640577 5.630770 0.000000
4.614786 6.984182 0.000000
4.607184 8.354324 0.000000
4.605170 9.729606 0.000000
4.604680 11.106289 0.000000
4.604568 12.483320 0.000000
4.604544 13.860432 0.000000
4.604539 15.237561 0.000000
4.604538 16.614694 0.000000
4.604538 17.991828 0.000000
4.604538 19.368962 0.000000
4.604538 20.746096 0.000000
4.604538 22.123230 0.000000
4.604538 23.500364 0.000000
4.604538 24.877498 0.000000
4.604538 26.254632 0.000000
4.604538 27.631766 0.000000
4.604538 29.008900 0.000000
4.604538 30.386034 0.000000
4.604538 31.763168 0.000000
4.604538 33.140302 0.000000
4.604538 34.517436 0.000000
4.604538 35.894570 0.000000
4.604538 37.271704 0.000000
4.604538 38.648838 0.000000
4.604550 40.025976 0.000000
4.604888 41.403224 0.000000
4.608847 42.781690 0.000000
4.632237 44.166694 0.000000
6.828720 7.594097 0.000000
6.799748 8.902146 0.000000
6.790281 10.228142 0.000000
6.787521 11.560308 0.000000
6.786785 12.894337 0.000000
6.786602 14.228874 0.000000
6.786559 15.563541 0.000000
6.786549 16.898238 0.000000
6.786547 18.232942 0.000000
6.786547 19.567648 0.000000
6.786547 20.902354 0.000000
6.786547 22.237060 0.000000
6.786547 23.571766 0.000000
6.786547 24.906472 0.000000
6.786547 26.241178 0.000000
6.786547 27.575884 0.000000
6.786547 28.910590 0.000000
6.786547 30.245296 0.000000
6.786547 31.580002 0.000000
6.786547 32.914708 0.000000
6.786547 34.249414 0.000000
6.786547 35.584120 0.000000
6.786547 36.918826 0.000000
6.786547 38.253533 0.000000
6.786548 39.588239 0.000000
6.786592 40.922960 0.000000
6.787214 42.257875 0.000000
6.792476 43.594353 0.000000
6.819030 44.938003 0.000000
8.916649 9.467447 0.000000
8.887441 10.734698 0.000000
8.877427 12.019616 0.000000
8.874327 13.310896 0.000000
8.873443 14.604217 0.000000
8.873208 15.898134 0.000000
8.873149 17.192213 0.000000
8.873135 18.486334 0.000000
8.873131 19.780464 0.000000
8.873131 21.074597 0.000000
8.873130 22.368731 0.000000
8.873130 23.662864 0.000000
8.873130 24.956998 0.000000
8.873130 26.251132 0.000000
8.873130 27.545265 0.000000
8.873130 28.839399 0.000000
8.873130 30.133532 0.000000
8.873130 31.427666 0.000000
8.873130 32.721799 0.000000
8.873130 34.015933 0.000000
8.873130 35.310067 0.000000
8.873130 36.604200 0.000000
8.873130 37.898334 0.000000
8.873131 39.192467 0.000000
8.873135 40.486602 0.000000
8.873212 41.780762 0.000000
8.874002 43.075162 0.000000
8.879709 44.371218 0.000000
8.906627 45.674424 0.000000
10.906443 11.252722 0.000000
10.878066 12.482029 0.000000
10.868135 13.728317 0.000000
10.864963 14.980826 0.000000
10.864022 16.235389 0.000000
10.863759 17.490576 0.000000
10.863690 18.745941 0.000000
10.863672 20.001353 0.000000
10.863668 21.256778 0.000000
10.863667 22.512206 0.000000
10.863667 23.767634 0.000000
10.863667 25.023063 0.000000
10.863667 26.278492 0.000000
10.863667 27.533920 0.000000
10.863667 28.789349 0.000000
10.863667 30.044778 0.000000
10.863667 31.300206 0.000000
10.863667 32.555635 0.000000
10.863667 33.811064 0.000000
10.863667 35.066493 0.000000
10.863667 36.321921 0.000000
10.863667 37.577350 0.000000
10.863667 38.832779 0.000000
10.863667 40.088207 0.000000
10.863676 41.343639 0.000000
10.863772 42.599100 0.000000
10.864624 43.854816 0.000000
10.870341 45.112172 0.000000
10.896567 46.376443 0.000000
12.801900 12.953347 0.000000
12.774686 14.146837 0.000000
12.765083 15.356540 0.000000
12.761972 16.572219 0.000000
12.761029 17.789893 0.000000
12.760758 19.008187 0.000000
12.760684 20.226662 0.000000
12.760664 21.445186 0.000000
12.760660 22.663725 0.000000
12.760658 23.882266 0.000000
12.760658 25.100809 0.000000
12.760658 26.319352 0.000000
12.760658 27.537894 0.000000
12.760658 28.756437 0.000000
12.760658 29.974980 0.000000
12.760658 31.193523 0.000000
12.760658 32.412065 0.000000
12.760658 33.630608 0.000000
12.760658 34.849151 0.000000
12.760658 36.067694 0.000000
12.760658 37.286236 0.000000
12.760658 38.504779 0.000000
[...]
POINT_DATA 1891
VECTORS U float
-0.000658 0.001864 0.000000
-5.468155 25.412989 0.000000
-19.843761 27.490418 0.000000
-0.000658 0.001864 0.000000
0.012139 0.591642 0.000000
0.019166 1.104630 0.000000
0.043824 1.562695 0.000000
0.094495 1.965147 0.000000
0.193352 2.339152 0.000000
0.321094 2.705939 0.000000
0.480819 3.087559 0.000000
0.645468 3.495267 0.000000
0.815184 3.938219 0.000000
0.966855 4.417148 0.000000
1.103976 4.932512 0.000000
1.209949 5.479534 0.000000
1.292016 6.054869 0.000000
1.338988 6.652194 0.000000
1.360310 7.267374 0.000000
1.348352 7.894560 0.000000
1.313168 8.530114 0.000000
1.249236 9.169331 0.000000
1.166168 9.809390 0.000000
1.059681 10.446756 0.000000
0.938406 11.079344 0.000000
0.798872 11.704605 0.000000
0.648526 12.321027 0.000000
0.484514 12.926828 0.000000
0.313079 13.520925 0.000000
0.131901 14.102125 0.000000
-0.053915 14.669664 0.000000
-0.246207 15.222796 0.000000
-0.440898 15.761007 0.000000
-0.639391 16.283886 0.000000
-0.838509 16.791119 0.000000
-1.039279 17.282547 0.000000
-1.239280 17.758021 0.000000
-1.439233 18.217563 0.000000
-1.637339 18.661165 0.000000
-1.834080 19.088978 0.000000
-2.028148 19.501110 0.000000
-2.219855 19.897805 0.000000
-2.408273 20.279261 0.000000
-2.593598 20.645787 0.000000
-2.775189 20.997654 0.000000
-2.953170 21.335215 0.000000
-3.127115 21.658795 0.000000
-3.297109 21.968777 0.000000
-3.462883 22.265521 0.000000
-3.624505 22.549431 0.000000
-3.781823 22.820892 0.000000
-3.934905 23.080319 0.000000
-4.083685 23.328113 0.000000
-4.228244 23.564694 0.000000
-4.368584 23.790474 0.000000
-4.504807 24.005878 0.000000
-4.636984 24.211328 0.000000
-4.765261 24.407260 0.000000
-4.889796 24.594113 0.000000
-5.010833 24.772352 0.000000
-5.128712 24.942467 0.000000
-5.243904 25.105049 0.000000
-5.357135 25.260923 0.000000
-5.918459 25.426484 0.000000
-6.331112 25.450163 0.000000
-6.730420 25.478439 0.000000
-7.121958 25.515063 0.000000
-7.509694 25.557334 0.000000
-7.895903 25.605546 0.000000
-8.282394 25.658688 0.000000
-8.670558 25.716538 0.000000
-9.061559 25.778522 0.000000
-9.456409 25.844345 0.000000
-9.856003 25.913593 0.000000
-10.261176 25.985972 0.000000
-10.672701 26.061140 0.000000
-11.091337 26.138821 0.000000
-11.517819 26.218711 0.000000
-11.952904 26.300549 0.000000
-12.397355 26.384055 0.000000
-12.851998 26.468985 0.000000
-13.317705 26.555075 0.000000
-13.795478 26.642102 0.000000
-14.286413 26.729816 0.000000
-14.791894 26.818030 0.000000
-15.313460 26.906501 0.000000
-15.853354 26.995112 0.000000
-16.414025 27.083600 0.000000
-16.999998 27.171961 0.000000
-17.615915 27.259888 0.000000
-18.274360 27.346847 0.000000
-18.989247 27.435532 0.000000
-19.756429 27.237666 0.000000
-19.664677 26.993796 0.000000
-19.569229 26.752777 0.000000
-19.470679 26.511646 0.000000
-19.369279 26.268537 0.000000
-19.265026 26.022118 0.000000
-19.157802 25.771363 0.000000
-19.047422 25.515444 0.000000
-18.933686 25.253660 0.000000
-18.816372 24.985395 0.000000
-18.695269 24.710088 0.000000
-18.570144 24.427217 0.000000
-18.440779 24.136278 0.000000
-18.306929 23.836787 0.000000
-18.168365 23.528264 0.000000
-18.024815 23.210233 0.000000
-17.876031 22.882217 0.000000
-17.721700 22.543742 0.000000
-17.561548 22.194323 0.000000
-17.395206 21.833485 0.000000
-17.222362 21.460742 0.000000
-17.042580 21.075624 0.000000
-16.855499 20.677655 0.000000
-16.660605 20.266389 0.000000
-16.457483 19.841381 0.000000
-16.245528 19.402238 0.000000
-16.024270 18.948586 0.000000
-15.793020 18.480119 0.000000
-15.551252 17.996582 0.000000
-15.298208 17.497811 0.000000
-15.033321 16.983724 0.000000
-14.755797 16.454354 0.000000
-14.465046 15.909860 0.000000
-14.160299 15.350525 0.000000
-13.840959 14.776817 0.000000
-13.506363 14.189317 0.000000
-13.155924 13.588866 0.000000
-12.789188 12.976375 0.000000
-12.405562 12.353117 0.000000
-12.004942 11.720347 0.000000
-11.586663 11.079830 0.000000
-11.151154 10.433146 0.000000
-10.697531 9.782618 0.000000
-10.227015 9.130098 0.000000
-9.738205 8.478562 0.000000
-9.233526 7.830002 0.000000
-8.710487 7.188212 0.000000
-8.173434 6.555044 0.000000
-7.617649 5.935463 0.000000
-7.050782 5.330540 0.000000
-6.463487 4.747303 0.000000
-5.869800 4.184370 0.000000
-5.250024 3.653531 0.000000
-4.632737 3.145524 0.000000
-3.971760 2.686736 0.000000
-3.336578 2.237428 0.000000
-2.597763 1.882672 0.000000
-1.968574 1.429500 0.000000
-0.984461 1.259941 0.000000
0.000658 -0.001864 0.000000
-0.000658 0.001864 0.000000
0.000658 -0.001864 0.000000
-0.000658 0.001864 0.000000
0.000658 -0.001864 0.000000
-0.000658 0.001864 0.000000
0.000658 -0.001864 0.000000
-0.000658 0.001864 0.000000
0.000658 -0.001864 0.000000
-0.000658 0.001864 0.000000
0.000658 -0.001864 0.000000
-0.000658 0.001864 0.000000
0.000658 -0.001864 0.000000
-0.000658 0.001864 0.000000
0.000658 -0.001864 0.000000
-0.000658 0.001864 0.000000
0.000658 -0.001864 0.000000
-0.000658 0.001864 0.000000
0.000658 -0.001864 0.000000
-0.000658 0.001864 0.000000
0.000658 -0.001864 0.000000
-0.000658 0.001864 0.000000
0.000658 -0.001864 0.000000
-0.000658 0.001864 0.000000
0.000658 -0.001864 0.000000
-0.000658 0.001864 0.000000
0.000658 -0.001864 0.000000
-0.000658 0.001864 0.000000
0.000658 -0.001864 0.000000
0.001987 0.564653 0.000000
0.005295 0.554566 0.000000
0.003353 0.551427 0.000000
0.010501 0.544025 0.000000
0.011885 0.536135 0.000000
0.020024 0.518440 0.000000
0.022185 0.498941 0.000000
0.029631 0.468233 0.000000
0.031253 0.436733 0.000000
0.037185 0.394471 0.000000
0.037691 0.353471 0.000000
0.041760 0.302973 0.000000
0.040955 0.256203 0.000000
0.043008 0.201503 0.000000
0.040848 0.153150 0.000000
0.040729 0.098541 0.000000
0.037169 0.053039 0.000000
0.034545 0.003088 0.000000
0.029392 -0.034650 0.000000
0.023508 -0.074665 0.000000
0.016193 -0.098504 0.000000
0.005327 -0.121480 0.000000
-0.005667 -0.122285 0.000000
-0.025761 -0.116563 0.000000
-0.044822 -0.077457 0.000000
-0.086667 -0.018713 0.000000
-0.129300 0.100777 0.000000
-0.243249 0.281427 0.000000
-0.387444 0.621113 0.000000
0.020076 1.078743 0.000000
0.021165 1.062853 0.000000
0.036553 1.045273 0.000000
0.048116 1.024466 0.000000
0.068342 0.992517 0.000000
0.082262 0.955083 0.000000
0.101410 0.904603 0.000000
0.113185 0.850002 0.000000
0.128167 0.783117 0.000000
0.135614 0.714962 0.000000
0.145007 0.636546 0.000000
0.147199 0.560410 0.000000
0.150365 0.476640 0.000000
0.146889 0.399056 0.000000
0.143343 0.316813 0.000000
0.133758 0.244979 0.000000
0.122644 0.171850 0.000000
0.105982 0.113914 0.000000
0.085438 0.058772 0.000000
0.059476 0.024758 0.000000
0.025470 -0.000877 0.000000
-0.014782 0.002883 0.000000
-0.071247 0.023712 0.000000
-0.137483 0.086859 0.000000
-0.238279 0.182148 0.000000
-0.360572 0.341161 0.000000
-0.566324 0.558520 0.000000
-0.830902 0.864395 0.000000
-1.347750 1.247633 0.000000
0.053534 1.532686 0.000000
0.080803 1.506170 0.000000
0.106148 1.476118 0.000000
0.141218 1.435058 0.000000
0.169645 1.386592 0.000000
0.202539 1.324582 0.000000
0.226431 1.256828 0.000000
0.251769 1.176561 0.000000
0.267248 1.093932 0.000000
0.282378 1.001254 0.000000
0.287597 0.910353 0.000000
0.291192 0.812607 0.000000
0.285156 0.721205 0.000000
0.276206 0.626643 0.000000
0.257886 0.543376 0.000000
0.234861 0.461130 0.000000
0.202381 0.395699 0.000000
0.162297 0.336227 0.000000
0.111881 0.300065 0.000000
0.048841 0.276073 0.000000
-0.027018 0.283467 0.000000
-0.124674 0.311256 0.000000
-0.240946 0.380606 0.000000
-0.396700 0.481028 0.000000
-0.583398 0.633667 0.000000
-0.844729 0.827329 0.000000
-1.157553 1.069380 0.000000
-1.608223 1.342426 0.000000
-2.089169 1.556178 0.000000
0.136192 1.933403 0.000000
0.177295 1.899252 0.000000
0.228467 1.855639 0.000000
0.272200 1.803500 0.000000
0.319146 1.737929 0.000000
0.355148 1.665507 0.000000
0.390524 1.580843 0.000000
0.413527 1.493165 0.000000
0.433670 1.395999 0.000000
0.441041 1.300343 0.000000
0.443999 1.198681 0.000000
0.434186 1.103408 0.000000
0.418438 1.006081 0.000000
0.389864 0.920333 0.000000
0.353309 0.836931 0.000000
0.303406 0.770701 0.000000
0.242325 0.711781 0.000000
0.166439 0.676192 0.000000
0.074134 0.653621 0.000000
-0.036057 0.661174 0.000000
-0.171382 0.688208 0.000000
-0.330271 0.752234 0.000000
-0.528718 0.842120 0.000000
-0.759698 0.973069 0.000000
-1.052574 1.132686 0.000000
-1.386333 1.324808 0.000000
-1.806788 1.538431 0.000000
-2.248467 1.740568 0.000000
-2.749809 2.005725 0.000000
0.251483 2.304094 0.000000
0.319184 2.263201 0.000000
0.378316 2.213614 0.000000
0.439030 2.151200 0.000000
0.486577 2.080954 0.000000
0.531212 1.998822 0.000000
0.560849 1.913004 0.000000
0.585066 1.818230 0.000000
0.593672 1.724569 0.000000
0.595133 1.625535 0.000000
0.580800 1.532610 0.000000
0.557666 1.438259 0.000000
0.518484 1.355155 0.000000
0.468349 1.274876 0.000000
0.401438 1.211144 0.000000
0.320365 1.154792 0.000000
0.220916 1.120438 0.000000
0.102374 1.098271 0.000000
-0.037442 1.103479 0.000000
-0.203841 1.125628 0.000000
-0.396022 1.179609 0.000000
-0.625658 1.254279 0.000000
-0.886647 1.362027 0.000000
-1.199041 1.491261 0.000000
-1.545490 1.646793 0.000000
-1.955145 1.821364 0.000000
-2.387507 2.002192 0.000000
-2.877478 2.222249 0.000000
-3.411046 2.426303 0.000000
0.404776 2.668764 0.000000
0.478857 2.624990 0.000000
0.552814 2.570267 0.000000
0.611302 2.507078 0.000000
0.664479 2.432423 0.000000
0.700004 2.353264 0.000000
0.727585 2.265517 0.000000
0.736836 2.178235 0.000000
0.736393 2.085930 0.000000
0.717388 1.999097 0.000000
0.687028 1.911035 0.000000
0.637806 1.833390 0.000000
0.575130 1.758445 0.000000
0.492866 1.698786 0.000000
0.394160 1.645825 0.000000
0.274428 1.612853 0.000000
0.133925 1.590500 0.000000
-0.029948 1.592361 0.000000
-0.220673 1.608342 0.000000
-0.437954 1.651547 0.000000
-0.690058 1.711279 0.000000
-0.971893 1.798575 0.000000
-1.297585 1.902954 0.000000
-1.653522 2.030427 0.000000
-2.060339 2.174918 0.000000
-2.491259 2.331860 0.000000
-2.973086 2.515693 0.000000
-3.483251 2.694674 0.000000
-4.026033 2.915040 0.000000
0.568332 3.047593 0.000000
0.654484 3.001644 0.000000
0.723230 2.947932 0.000000
0.784369 2.883676 0.000000
0.825300 2.814114 0.000000
0.855865 2.736230 0.000000
0.865567 2.657937 0.000000
0.863258 2.574735 0.000000
0.839936 2.496076 0.000000
0.803065 2.416072 0.000000
0.744966 2.345320 0.000000
0.671410 2.276774 0.000000
0.576052 2.221915 0.000000
0.462606 2.172715 0.000000
0.326248 2.141261 0.000000
0.168172 2.118665 0.000000
-0.014510 2.117224 0.000000
-0.223704 2.127314 0.000000
-0.459565 2.160782 0.000000
-0.727779 2.207556 0.000000
-1.024333 2.277903 0.000000
-1.359404 2.362275 0.000000
-1.722530 2.467434 0.000000
-2.129024 2.587498 0.000000
-2.559964 2.722026 0.000000
-3.035631 2.877082 0.000000
-3.535141 3.035277 0.000000
-4.068974 3.224368 0.000000
-4.643058 3.418272 0.000000
0.741589 3.453677 0.000000
0.819406 3.408314 0.000000
0.887846 3.355052 0.000000
0.933848 3.296265 0.000000
0.967264 3.229568 0.000000
0.977522 3.161504 0.000000
0.973708 3.088525 0.000000
0.946755 3.018974 0.000000
0.904418 2.947788 0.000000
0.838910 2.884503 0.000000
0.756384 2.822761 0.000000
0.650360 2.772978 0.000000
0.525106 2.727714 0.000000
0.375627 2.697971 0.000000
0.203973 2.675400 0.000000
0.007008 2.671212 0.000000
-0.215855 2.676344 0.000000
-0.465231 2.701677 0.000000
-0.744830 2.737804 0.000000
-1.051692 2.794430 0.000000
-1.393193 2.862736 0.000000
-1.761368 2.949866 0.000000
-2.167793 3.049880 0.000000
-2.598491 3.164733 0.000000
-3.069017 3.296234 0.000000
-3.562263 3.435399 0.000000
-4.090151 3.598350 0.000000
-4.647269 3.765186 0.000000
-5.232302 3.962817 0.000000
0.899763 3.894657 0.000000
0.974327 3.849741 0.000000
1.024958 3.800901 0.000000
1.061159 3.745318 0.000000
1.072223 3.687616 0.000000
1.067428 3.625035 0.000000
1.037689 3.564714 0.000000
0.991052 3.502417 0.000000
0.919680 3.446614 0.000000
0.830100 3.391659 0.000000
0.715740 3.346947 0.000000
0.581389 3.305662 0.000000
0.421914 3.277814 0.000000
0.240116 3.255640 0.000000
0.032625 3.249412 0.000000
-0.200056 3.250668 0.000000
-0.458998 3.269483 0.000000
-0.746373 3.297100 0.000000
-1.060181 3.342730 0.000000
-1.405700 3.398144 0.000000
-1.776926 3.470625 0.000000
-2.182655 3.554175 0.000000
-2.612309 3.652223 0.000000
-3.077985 3.764163 0.000000
-3.566047 3.885980 0.000000
-4.087838 4.026830 0.000000
-4.634498 4.173293 0.000000
-5.208272 4.343585 0.000000
-5.817906 4.527150 0.000000
1.045292 4.372692 0.000000
1.099625 4.329913 0.000000
1.138387 4.283680 0.000000
1.150489 4.235424 0.000000
1.145250 4.182660 0.000000
1.113577 4.131090 0.000000
1.063785 4.077272 0.000000
0.988016 4.028577 0.000000
0.893150 3.980102 0.000000
0.772550 3.940245 0.000000
0.631478 3.902856 0.000000
0.464675 3.877011 0.000000
0.275594 3.855571 0.000000
0.060638 3.847959 0.000000
-0.178790 3.846329 0.000000
-0.444197 3.860041 0.000000
-0.736531 3.880952 0.000000
-1.054638 3.917805 0.000000
-1.402160 3.962876 0.000000
-1.774651 4.023433 0.000000
-2.178759 4.093473 0.000000
-2.606393 4.177341 0.000000
-3.067036 4.272954 0.000000
-3.549853 4.379337 0.000000
-4.064851 4.501308 0.000000
-4.602893 4.630590 0.000000
-5.168660 4.779278 0.000000
-5.762324 4.936461 0.000000
-6.383317 5.119127 0.000000
1.160167 4.886904 0.000000
1.200809 4.845532 0.000000
1.213992 4.804405 0.000000
1.208740 4.760106 0.000000
1.175892 4.716320 0.000000
1.123961 4.670212 0.000000
1.045096 4.627978 0.000000
0.946487 4.585467 0.000000
0.821450 4.550087 0.000000
0.675662 4.516382 0.000000
0.503749 4.492538 0.000000
0.309723 4.472062 0.000000
0.089768 4.463579 0.000000
-0.153965 4.459868 0.000000
-0.423391 4.469618 0.000000
-0.718459 4.485280 0.000000
-1.038753 4.515120 0.000000
-1.386602 4.551885 0.000000
-1.758815 4.602711 0.000000
-2.160337 4.661663 0.000000
-2.584972 4.733629 0.000000
-3.040157 4.815597 0.000000
-3.517279 4.908511 0.000000
-4.024850 5.014390 0.000000
-4.554512 5.128611 0.000000
-5.112055 5.259064 0.000000
-5.694161 5.397055 0.000000
-6.301022 5.554163 0.000000
-6.940673 5.727650 0.000000
1.250997 5.433668 0.000000
1.264919 5.394732 0.000000
1.259878 5.356336 0.000000
1.226454 5.318796 0.000000
1.173227 5.279318 0.000000
1.092356 5.242692 0.000000
0.991291 5.205476 0.000000
0.863315 5.174067 0.000000
0.714458 5.143725 0.000000
0.539244 5.121760 0.000000
0.342155 5.102347 0.000000
0.119169 5.093341 0.000000
-0.126936 5.088149 0.000000
-0.398448 5.094811 0.000000
-0.694491 5.106352 0.000000
-1.015285 5.130558 0.000000
-1.362085 5.160625 0.000000
-1.732725 5.203479 0.000000
-2.130768 5.253312 0.000000
-2.551511 5.315303 0.000000
-3.000739 5.385860 0.000000
-3.471614 5.467158 0.000000
-3.971229 5.559365 0.000000
-4.492308 5.660380 0.000000
-5.040781 5.775060 0.000000
-5.612142 5.897355 0.000000
-6.208186 6.035403 0.000000
-6.830642 6.183741 0.000000
-7.480521 6.354323 0.000000
1.305733 6.008508 0.000000
1.300810 5.971038 0.000000
1.267213 5.937138 0.000000
1.213344 5.902762 0.000000
1.131348 5.870687 0.000000
1.028861 5.837976 0.000000
0.899157 5.809938 0.000000
0.748555 5.782546 0.000000
0.571488 5.762236 0.000000
0.372831 5.743864 0.000000
0.148374 5.734526 0.000000
-0.098582 5.728261 0.000000
-0.370657 5.732467 0.000000
-0.666288 5.740738 0.000000
-0.986244 5.760367 0.000000
-1.330885 5.784991 0.000000
-1.698893 5.821268 0.000000
-2.092692 5.863569 0.000000
-2.508775 5.917189 0.000000
-2.951572 5.978188 0.000000
-3.415677 6.049530 0.000000
-3.906907 6.130140 0.000000
-4.419092 6.219650 0.000000
-4.957791 6.320712 0.000000
-5.518275 6.429510 0.000000
-6.103507 6.551789 0.000000
-6.712523 6.682349 0.000000
-7.345420 6.828737 0.000000
-8.009092 6.992197 0.000000
1.333649 6.606030 0.000000
1.300067 6.570753 0.000000
1.246042 6.538949 0.000000
1.163614 6.509993 0.000000
1.060524 6.480849 0.000000
0.930051 6.455501 0.000000
0.778745 6.430581 0.000000
0.600969 6.411622 0.000000
0.401918 6.394166 0.000000
0.177216 6.384556 0.000000
-0.069401 6.377464 0.000000
-0.340849 6.379649 0.000000
-0.634984 6.385268 0.000000
-0.953050 6.401109 0.000000
-1.294655 6.421255 0.000000
-1.659187 6.452049 0.000000
-2.048118 6.488086 0.000000
-2.458917 6.534648 0.000000
-2.894882 6.587618 0.000000
-3.351778 6.650444 0.000000
-3.834297 6.721218 0.000000
-4.337297 6.800759 0.000000
-4.865734 6.890121 0.000000
-5.415106 6.987214 0.000000
-5.988901 7.095886 0.000000
-6.585037 7.212166 0.000000
-7.204354 7.341335 0.000000
-7.848861 7.481041 0.000000
-8.520830 7.640560 0.000000
1.326687 7.221194 0.000000
1.272870 7.187133 0.000000
1.190586 7.158911 0.000000
1.087544 7.132048 0.000000
0.957061 7.108589 0.000000
0.805864 7.085599 0.000000
0.628272 7.067627 0.000000
0.429740 7.050890 0.000000
0.205747 7.040966 0.000000
-0.039610 7.033164 0.000000
-0.309504 7.033602 0.000000
-0.601306 7.037001 0.000000
-0.916666 7.049632 0.000000
-1.254554 7.066030 0.000000
-1.614956 7.092186 0.000000
-1.998537 7.122960 0.000000
-2.403571 7.163528 0.000000
-2.832397 7.209715 0.000000
-3.281752 7.265249 0.000000
-3.755340 7.327666 0.000000
-4.248935 7.398596 0.000000
-4.766812 7.477935 0.000000
-5.304898 7.564884 0.000000
-5.866760 7.661776 0.000000
-6.449866 7.765897 0.000000
-7.055897 7.881122 0.000000
-7.684860 8.004510 0.000000
-8.337249 8.141207 0.000000
-9.018989 8.294505 0.000000
1.295027 7.848878 0.000000
1.213448 7.816657 0.000000
1.111040 7.789848 0.000000
0.981177 7.767146 0.000000
0.830730 7.745428 0.000000
0.654022 7.728023 0.000000
0.456713 7.711752 0.000000
0.234168 7.701399 0.000000
-0.009221 7.692909 0.000000
-0.276847 7.691752 0.000000
-0.565677 7.693215 0.000000
-0.877706 7.703043 0.000000
-1.211367 7.716233 0.000000
-1.567145 7.738395 0.000000
-1.945021 7.764686 0.000000
-2.343941 7.800107 0.000000
-2.765423 7.840522 0.000000
-3.207015 7.889783 0.000000
-3.671553 7.945078 0.000000
-4.155617 8.008570 0.000000
-4.662788 8.079329 0.000000
-5.189508 8.157500 0.000000
-5.739155 8.244228 0.000000
-6.309103 8.337873 0.000000
-6.901528 8.441151 0.000000
-7.515588 8.551621 0.000000
-8.151925 8.672678 0.000000
-8.812469 8.803717 0.000000
-9.500304 8.952479 0.000000
1.232960 8.484759 0.000000
1.131854 8.453500 0.000000
1.003232 8.429491 0.000000
0.854089 8.408055 0.000000
0.678831 8.390684 0.000000
0.483292 8.374569 0.000000
0.262770 8.363616 0.000000
0.021890 8.354390 0.000000
-0.242922 8.351698 0.000000
-0.528298 8.351399 0.000000
-0.836527 8.358699 0.000000
-1.165586 8.369070 0.000000
-1.516382 8.387715 0.000000
-1.888312 8.410123 0.000000
-2.280883 8.441063 0.000000
-2.694911 8.476513 0.000000
-3.128620 8.520338 0.000000
-3.584084 8.569528 0.000000
-4.058585 8.626582 0.000000
-4.555039 8.689988 0.000000
-5.070408 8.760568 0.000000
-5.607744 8.838550 0.000000
-6.164529 8.923155 0.000000
-6.743129 9.016111 0.000000
-7.342290 9.115651 0.000000
-7.963173 9.224280 0.000000
-8.606189 9.340444 0.000000
-9.272242 9.467842 0.000000
-9.966510 9.610804 0.000000
1.150352 9.124671 0.000000
1.023775 9.094970 0.000000
0.876534 9.071889 0.000000
0.703243 9.053687 0.000000
0.509924 9.037298 0.000000
0.291881 9.025519 0.000000
0.053924 9.015454 0.000000
-0.207655 9.011221 0.000000
-0.489218 9.009249 0.000000
-0.793296 9.014195 0.000000
-1.117488 9.022015 0.000000
-1.463053 9.037490 0.000000
-1.828891 9.056465 0.000000
-2.214978 9.083437 0.000000
-2.621523 9.114559 0.000000
-3.047320 9.153624 0.000000
-3.493774 9.197539 0.000000
-3.958770 9.248994 0.000000
-4.444601 9.306078 0.000000
-4.948732 9.370085 0.000000
-5.473812 9.440548 0.000000
-6.017545 9.517356 0.000000
-6.582279 9.601408 0.000000
-7.166593 9.691569 0.000000
-7.772009 9.789627 0.000000
-8.398332 9.894166 0.000000
-9.046262 10.007379 0.000000
-9.717572 10.129638 0.000000
-10.415777 10.267725 0.000000
1.042845 9.765310 0.000000
0.898370 9.736402 0.000000
0.727659 9.715571 0.000000
0.537000 9.698142 0.000000
0.321824 9.685189 0.000000
0.087121 9.674124 0.000000
-0.170899 9.668291 0.000000
-0.448383 9.664672 0.000000
-0.748053 9.667358 0.000000
-1.067196 9.672805 0.000000
-1.407365 9.685348 0.000000
-1.767039 9.701219 0.000000
-2.146585 9.724609 0.000000
-2.545689 9.751893 0.000000