# vtk DataFile Version 2.0
cantilever_tri6_mix
ASCII
DATASET POLYDATA
POINTS 400 float
0.000000 -6.000000 0.000000
48.000000 -6.000000 0.000000
48.000000 6.000000 0.000000
0.000000 6.000000 0.000000
1.333333 -6.000000 0.000000
2.666667 -6.000000 0.000000
4.000000 -6.000000 0.000000
5.333333 -6.000000 0.000000
6.666667 -6.000000 0.000000
8.000000 -6.000000 0.000000
9.333333 -6.000000 0.000000
10.666667 -6.000000 0.000000
12.000000 -6.000000 0.000000
13.333333 -6.000000 0.000000
14.666667 -6.000000 0.000000
16.000000 -6.000000 0.000000
17.333333 -6.000000 0.000000
18.666667 -6.000000 0.000000
20.000000 -6.000000 0.000000
21.333333 -6.000000 0.000000
22.666667 -6.000000 0.000000
24.000000 -6.000000 0.000000
25.333333 -6.000000 0.000000
26.666667 -6.000000 0.000000
28.000000 -6.000000 0.000000
29.333333 -6.000000 0.000000
30.666667 -6.000000 0.000000
32.000000 -6.000000 0.000000
33.333333 -6.000000 0.000000
34.666667 -6.000000 0.000000
36.000000 -6.000000 0.000000
37.333333 -6.000000 0.000000
38.666667 -6.000000 0.000000
40.000000 -6.000000 0.000000
41.333333 -6.000000 0.000000
42.666667 -6.000000 0.000000
44.000000 -6.000000 0.000000
45.333333 -6.000000 0.000000
46.666667 -6.000000 0.000000
48.000000 -4.666667 0.000000
48.000000 -3.333333 0.000000
48.000000 -2.000000 0.000000
48.000000 -0.666667 0.000000
48.000000 0.666667 0.000000
48.000000 2.000000 0.000000
48.000000 3.333333 0.000000
48.000000 4.666667 0.000000
46.666667 6.000000 0.000000
45.333333 6.000000 0.000000
44.000000 6.000000 0.000000
42.666667 6.000000 0.000000
41.333333 6.000000 0.000000
40.000000 6.000000 0.000000
38.666667 6.000000 0.000000
37.333333 6.000000 0.000000
36.000000 6.000000 0.000000
34.666667 6.000000 0.000000
33.333333 6.000000 0.000000
32.000000 6.000000 0.000000
30.666667 6.000000 0.000000
29.333333 6.000000 0.000000
28.000000 6.000000 0.000000
26.666667 6.000000 0.000000
25.333333 6.000000 0.000000
24.000000 6.000000 0.000000
22.666667 6.000000 0.000000
21.333333 6.000000 0.000000
20.000000 6.000000 0.000000
18.666667 6.000000 0.000000
17.333333 6.000000 0.000000
16.000000 6.000000 0.000000
14.666667 6.000000 0.000000
13.333333 6.000000 0.000000
12.000000 6.000000 0.000000
10.666667 6.000000 0.000000
9.333333 6.000000 0.000000
8.000000 6.000000 0.000000
6.666667 6.000000 0.000000
5.333333 6.000000 0.000000
4.000000 6.000000 0.000000
2.666667 6.000000 0.000000
1.333333 6.000000 0.000000
0.000000 4.666667 0.000000
0.000000 3.333333 0.000000
0.000000 2.000000 0.000000
0.000000 0.666667 0.000000
0.000000 -0.666667 0.000000
0.000000 -2.000000 0.000000
0.000000 -3.333333 0.000000
0.000000 -4.666667 0.000000
21.579596 0.439648 0.000000
26.397602 -1.341045 0.000000
33.101765 -0.106717 0.000000
17.216989 -1.847619 0.000000
28.689989 4.749315 0.000000
30.287763 -0.124430 0.000000
10.840405 -3.550763 0.000000
13.489637 -3.574005 0.000000
17.658371 -4.698610 0.000000
18.265848 2.180271 0.000000
28.677396 -4.767594 0.000000
10.674175 3.561652 0.000000
26.990428 1.419927 0.000000
20.934606 4.804698 0.000000
12.189688 -3.568004 0.000000
15.040313 -4.807816 0.000000
24.078714 -3.510596 0.000000
36.012600 -4.817636 0.000000
46.757039 -2.993514 0.000000
2.796295 4.834336 0.000000
28.685090 3.561078 0.000000
46.737508 3.047939 0.000000
16.032259 -2.475248 0.000000
5.739560 -2.339963 0.000000
43.296584 -2.213804 0.000000
4.348324 -0.062321 0.000000
16.390527 -4.781689 0.000000
41.884712 0.021362 0.000000
10.207235 0.027448 0.000000
30.171387 -2.428812 0.000000
16.050478 -1.172883 0.000000
13.742436 -4.782333 0.000000
36.741437 -3.623550 0.000000
37.481106 -4.807843 0.000000
12.254603 -1.123569 0.000000
23.998131 -0.548993 0.000000
34.951573 2.324410 0.000000
9.872644 4.766075 0.000000
45.524418 -3.603694 0.000000
40.394570 -0.087643 0.000000
19.908145 -3.635980 0.000000
14.553664 -0.031418 0.000000
1.257475 -0.082831 0.000000
19.758119 2.498622 0.000000
36.716470 1.090634 0.000000
23.681021 2.052059 0.000000
46.715667 -1.502865 0.000000
8.720540 0.017298 0.000000
1.246281 -3.062392 0.000000
27.348925 -2.277939 0.000000
20.423937 -4.744637 0.000000
29.421036 -3.563610 0.000000
22.772195 -0.001248 0.000000
21.386859 3.110253 0.000000
32.429027 2.323562 0.000000
16.967883 2.275429 0.000000
35.265246 -1.280418 0.000000
8.481404 4.761771 0.000000
7.865012 3.532905 0.000000
14.832348 3.586476 0.000000
16.493288 1.072626 0.000000
32.480893 3.544698 0.000000
24.841780 -2.133951 0.000000
34.533289 -0.101788 0.000000
25.948655 -2.518508 0.000000
41.879927 -2.422078 0.000000
45.624883 0.831046 0.000000
28.499060 1.324012 0.000000
7.962600 1.148685 0.000000
5.036673 1.124756 0.000000
27.971936 -1.088092 0.000000
36.346442 4.758644 0.000000
42.818637 4.803086 0.000000
31.217042 4.745483 0.000000
35.995893 -0.108500 0.000000
40.421335 -2.435844 0.000000
5.950543 -4.759366 0.000000
16.187064 3.551877 0.000000
36.322482 3.534838 0.000000
35.040522 3.540938 0.000000
6.453652 3.543267 0.000000
19.985569 -0.135619 0.000000
45.470833 -2.260898 0.000000
37.602863 3.542183 0.000000
33.810005 -1.303660 0.000000
38.212852 -3.613180 0.000000
1.116526 1.441272 0.000000
41.817249 -4.746104 0.000000
25.600865 0.031464 0.000000
7.082819 4.766044 0.000000
5.047861 -1.194200 0.000000
38.947582 -4.788653 0.000000
23.286738 3.606803 0.000000
28.010540 -3.542205 0.000000
21.587625 -3.760533 0.000000
40.907441 1.128974 0.000000
14.767748 -3.577163 0.000000
18.162425 4.738547 0.000000
5.795839 -0.035824 0.000000
23.080568 -4.829939 0.000000
28.646506 2.428994 0.000000
21.010336 -3.134569 0.000000
40.366499 2.343381 0.000000
38.914886 4.772213 0.000000
19.500484 4.747061 0.000000
26.111827 2.571734 0.000000
23.468101 -1.421624 0.000000
3.632666 1.184147 0.000000
30.128306 -4.775170 0.000000
36.258492 2.316852 0.000000
1.120187 -4.510235 0.000000
27.625399 0.428174 0.000000
2.317420 0.823849 0.000000
21.999897 4.037011 0.000000
9.437802 1.166061 0.000000
27.251202 -4.779992 0.000000
26.856515 -0.295590 0.000000
37.601194 2.329693 0.000000
14.054784 4.793821 0.000000
18.845792 3.458991 0.000000
9.271473 3.533836 0.000000
4.240569 4.809794 0.000000
9.891328 -4.755898 0.000000
44.280170 1.532336 0.000000
31.175689 2.319787 0.000000
37.462493 -0.109996 0.000000
42.479665 -1.150096 0.000000
10.101964 2.345673 0.000000
5.674325 4.789126 0.000000
42.108385 1.420121 0.000000
40.172947 3.555216 0.000000
3.090727 -0.131135 0.000000
45.410016 4.884862 0.000000
31.110802 1.129373 0.000000
5.057843 3.590564 0.000000
31.679769 -0.087742 0.000000
12.917024 2.379481 0.000000
6.492745 1.147728 0.000000
32.482936 1.120098 0.000000
18.409363 -2.350971 0.000000
8.620207 -2.297709 0.000000
27.373433 2.392502 0.000000
1.129822 3.064709 0.000000
13.131887 0.047544 0.000000
3.452423 -4.724906 0.000000
6.535175 -3.517998 0.000000
36.729737 -1.280622 0.000000
43.134298 2.225640 0.000000
34.546246 -2.462665 0.000000
22.572103 2.623450 0.000000
38.939210 -2.453530 0.000000
2.229693 -4.792200 0.000000
12.458224 -4.779191 0.000000
31.634454 -2.497783 0.000000
15.445230 4.785970 0.000000
4.530235 2.373915 0.000000
32.352067 -3.652545 0.000000
29.952528 3.535416 0.000000
11.272282 4.775271 0.000000
19.638474 -1.228537 0.000000
41.665082 2.575818 0.000000
46.802037 -4.489007 0.000000
43.529187 -0.610885 0.000000
14.784445 -2.393678 0.000000
26.165461 4.780312 0.000000
30.936085 -1.312415 0.000000
44.545817 0.128628 0.000000
17.254419 -0.348807 0.000000
22.044246 -2.120134 0.000000
46.729763 0.008989 0.000000
29.460728 -1.241046 0.000000
24.368041 0.433521 0.000000
3.222181 2.371894 0.000000
20.435504 0.938112 0.000000
3.666270 -3.454233 0.000000
44.337513 -4.603148 0.000000
15.115184 1.191900 0.000000
27.433938 4.757345 0.000000
33.680122 2.334930 0.000000
22.427690 4.953171 0.000000
33.816959 -3.631448 0.000000
45.516616 -0.747818 0.000000
3.673605 3.605811 0.000000
44.230458 3.123209 0.000000
6.528518 -1.188151 0.000000
14.285499 2.398280 0.000000
9.945258 -2.302094 0.000000
45.465182 2.254566 0.000000
43.161832 0.647850 0.000000
43.138129 -4.738199 0.000000
7.255190 2.326791 0.000000
14.827820 -1.241474 0.000000
21.731567 -4.837377 0.000000
24.914982 3.626026 0.000000
44.212859 -3.217448 0.000000
34.544843 -4.816082 0.000000
29.763479 1.077396 0.000000
24.877073 4.763287 0.000000
7.247169 -0.010778 0.000000
13.451681 3.594006 0.000000
38.975145 2.345447 0.000000
25.829319 -4.738544 0.000000
38.882603 3.554729 0.000000
32.357103 -1.301122 0.000000
1.216031 -1.691818 0.000000
12.343632 1.216221 0.000000
29.913577 2.307084 0.000000
46.734369 4.544402 0.000000
26.069854 0.974467 0.000000
30.874713 -3.622142 0.000000
17.522473 3.492427 0.000000
24.367056 2.953335 0.000000
40.200656 4.786926 0.000000
3.640253 -1.350281 0.000000
42.763773 -3.526028 0.000000
11.179770 -4.769716 0.000000
23.748469 -2.366503 0.000000
18.404967 -1.025232 0.000000
37.465367 -2.452928 0.000000
41.104861 -1.229266 0.000000
22.880444 -3.790318 0.000000
41.470069 3.712849 0.000000
23.182477 1.007917 0.000000
42.844512 3.541539 0.000000
33.077208 -4.814890 0.000000
17.743348 0.919924 0.000000
22.596349 -2.777081 0.000000
32.494481 4.755471 0.000000
31.597106 -4.798144 0.000000
11.689742 0.065061 0.000000
26.138987 3.632986 0.000000
13.556681 -1.159750 0.000000
18.608506 -3.625107 0.000000
33.864474 1.122079 0.000000
21.110710 -0.706522 0.000000
2.645099 -2.269648 0.000000
13.534006 -2.370681 0.000000
10.892091 1.171317 0.000000
2.335808 3.589184 0.000000
38.926766 -0.100496 0.000000
7.211018 -2.329968 0.000000
28.842560 -0.048112 0.000000
35.063125 4.758361 0.000000
19.043769 -4.842358 0.000000
37.629459 4.765641 0.000000
25.371353 2.098953 0.000000
7.268650 -4.736308 0.000000
29.947501 4.748742 0.000000
18.767787 0.181297 0.000000
31.211734 3.525089 0.000000
16.813442 4.765255 0.000000
41.216602 -3.585457 0.000000
9.465322 -1.111354 0.000000
5.090246 -3.540724 0.000000
46.771994 1.566739 0.000000
25.230066 -3.562726 0.000000
38.194928 -1.292646 0.000000
8.674934 2.325083 0.000000
13.756356 1.186200 0.000000
44.124651 4.565852 0.000000
25.121872 -1.054936 0.000000
22.049731 1.555072 0.000000
20.903508 2.034917 0.000000
33.082989 -2.475401 0.000000
22.324113 -1.047180 0.000000
40.398406 -4.770539 0.000000
45.583288 -4.869381 0.000000
12.334461 -2.343533 0.000000
11.171968 -2.338726 0.000000
4.663920 -4.732888 0.000000
8.586448 -4.741154 0.000000
4.281621 -2.397057 0.000000
19.255796 1.344569 0.000000
9.447259 -3.520562 0.000000
38.141409 1.110018 0.000000
1.322819 4.609461 0.000000
33.758539 3.549539 0.000000
20.851627 -1.928103 0.000000
12.064396 3.553617 0.000000
23.676468 4.691318 0.000000
15.902020 0.008457 0.000000
11.503056 2.351978 0.000000
27.414652 3.566767 0.000000
5.857361 2.335218 0.000000
24.417233 -4.784548 0.000000
24.725671 1.360977 0.000000
7.999163 -1.146170 0.000000
36.003222 -2.450834 0.000000
44.395283 -1.562101 0.000000
12.657202 4.781034 0.000000
35.282363 1.097323 0.000000
2.229793 -0.933835 0.000000
16.045554 -3.674738 0.000000
45.480544 3.655987 0.000000
39.654367 -1.285702 0.000000
19.630897 -2.434532 0.000000
26.673023 -3.559695 0.000000
33.778276 4.759761 0.000000
39.702197 -3.593639 0.000000
8.011499 -3.501756 0.000000
2.130747 2.180397 0.000000
2.395915 -3.555458 0.000000
28.716655 -2.335788 0.000000
35.280120 -3.629048 0.000000
15.651544 2.344842 0.000000
10.901890 -1.114652 0.000000
41.517019 4.819344 0.000000
20.294646 3.665118 0.000000
39.544273 1.119132 0.000000
17.287998 -3.323348 0.000000
POLYGONS 708 2832
3 200 0 4
3 241 4 5
3 200 4 241
3 241 5 234
3 234 5 6
3 359 6 7
3 88 89 200
3 89 0 200
3 200 241 391
3 138 200 391
3 264 234 359
3 359 234 6
3 166 343 359
3 391 234 264
3 234 391 241
3 359 343 264
3 359 7 166
3 336 8 9
3 360 9 10
3 11 12 305
3 358 96 104
3 10 11 212
3 11 305 212
3 166 336 235
3 166 8 336
3 389 235 336
3 166 235 343
3 360 212 363
3 336 9 360
3 363 96 276
3 96 363 212
3 212 305 96
3 389 336 360
3 10 212 360
3 389 360 363
3 104 96 305
3 8 166 7
3 113 343 235
3 88 138 87
3 88 200 138
3 294 87 138
3 325 264 361
3 325 138 391
3 264 343 361
3 294 138 325
3 264 325 391
3 303 325 361
3 86 294 132
3 294 86 87
3 132 294 381
3 86 132 85
3 381 303 221
3 381 294 325
3 115 221 303
3 132 381 202
3 325 303 381
3 221 202 381
3 303 361 180
3 235 330 113
3 361 343 113
3 330 389 230
3 274 113 330
3 363 230 389
3 363 276 230
3 276 358 395
3 230 276 342
3 96 358 276
3 376 330 230
3 115 180 188
3 115 303 180
3 188 180 274
3 197 221 115
3 188 274 288
3 274 330 376
3 342 137 376
3 342 376 230
3 395 342 276
3 288 274 376
3 180 113 274
3 395 118 342
3 395 358 124
3 180 361 113
3 389 330 235
3 159 115 188
3 242 305 12
3 13 14 121
3 121 14 105
3 13 121 242
3 116 105 15
3 15 105 14
3 116 15 16
3 121 105 186
3 104 242 97
3 242 104 305
3 242 121 97
3 357 104 97
3 105 382 186
3 97 121 186
3 116 399 382
3 112 186 382
3 116 382 105
3 326 97 186
3 116 16 98
3 13 242 12
3 17 18 333
3 140 333 18
3 17 333 98
3 19 20 282
3 282 20 189
3 18 19 140
3 282 140 19
3 333 130 322
3 322 98 333
3 322 399 98
3 399 116 98
3 282 184 140
3 333 140 130
3 191 140 184
3 184 282 310
3 316 310 106
3 130 140 191
3 310 282 189
3 316 184 310
3 20 21 189
3 17 98 16
3 385 322 130
3 326 321 357
3 357 97 326
3 326 186 253
3 253 281 326
3 112 399 93
3 112 253 186
3 257 93 307
3 253 112 281
3 112 382 399
3 112 93 120
3 233 124 321
3 124 357 321
3 131 321 281
3 395 124 319
3 370 281 120
3 120 281 112
3 257 120 93
3 281 370 131
3 326 281 321
3 257 370 120
3 93 399 229
3 124 358 357
3 322 229 399
3 322 385 229
3 367 385 191
3 249 229 385
3 196 258 316
3 316 258 191
3 106 306 316
3 196 316 306
3 191 184 316
3 258 367 191
3 338 307 249
3 307 229 249
3 171 249 324
3 257 307 338
3 354 324 258
3 354 258 196
3 171 324 90
3 324 367 258
3 324 354 90
3 367 324 249
3 385 367 249
3 142 354 196
3 125 142 196
3 229 307 93
3 130 191 385
3 249 171 338
3 310 189 106
3 357 358 104
3 233 321 131
3 85 176 84
3 85 132 176
3 232 84 176
3 221 197 202
3 115 159 197
3 197 262 202
3 176 202 390
3 202 176 132
3 245 197 159
3 84 232 83
3 232 176 390
3 328 232 390
3 232 365 83
3 202 262 390
3 197 245 262
3 245 272 262
3 328 390 262
3 159 373 245
3 245 373 224
3 159 227 373
3 227 288 158
3 227 159 188
3 158 288 137
3 227 158 280
3 204 137 118
3 137 288 376
3 118 395 319
3 137 204 158
3 118 137 342
3 327 118 319
3 280 347 148
3 280 158 347
3 210 148 347
3 280 170 373
3 204 327 217
3 327 204 118
3 210 347 217
3 371 217 327
3 371 327 295
3 204 217 347
3 158 204 347
3 101 217 371
3 368 101 371
3 280 373 227
3 227 188 288
3 170 280 148
3 83 365 82
3 365 232 328
3 109 365 328
3 81 82 365
3 272 224 211
3 272 328 262
3 78 211 218
3 328 272 109
3 224 272 245
3 272 211 109
3 3 82 81
3 80 81 109
3 211 79 109
3 79 211 78
3 109 79 80
3 365 109 81
3 211 224 218
3 148 179 170
3 148 147 179
3 76 179 147
3 170 179 218
3 210 101 127
3 101 210 217
3 127 101 248
3 210 127 147
3 148 210 147
3 75 147 127
3 179 77 218
3 179 76 77
3 218 77 78
3 127 74 75
3 75 76 147
3 73 74 248
3 248 101 368
3 74 127 248
3 248 379 73
3 170 218 224
3 373 170 224
3 295 327 319
3 131 348 233
3 131 266 348
3 348 266 275
3 233 348 295
3 257 150 370
3 257 315 150
3 150 315 145
3 370 150 266
3 124 233 319
3 266 150 394
3 348 226 295
3 348 275 226
3 289 226 275
3 226 368 371
3 394 275 266
3 150 145 394
3 300 145 99
3 167 394 145
3 315 99 145
3 149 275 394
3 315 362 99
3 233 295 319
3 171 362 338
3 171 263 362
3 133 362 263
3 133 99 362
3 90 142 312
3 263 171 90
3 312 142 261
3 263 90 351
3 257 338 315
3 312 351 90
3 133 397 209
3 209 99 133
3 133 263 352
3 143 133 352
3 351 135 239
3 135 351 312
3 143 239 203
3 239 143 351
3 135 182 239
3 351 143 352
3 263 351 352
3 397 133 143
3 312 375 135
3 362 315 338
3 266 131 370
3 300 99 209
3 368 289 379
3 368 226 289
3 208 379 289
3 368 379 248
3 244 149 167
3 289 275 149
3 340 167 300
3 208 289 149
3 167 149 394
3 340 244 167
3 72 208 71
3 208 72 379
3 71 208 244
3 340 70 244
3 70 340 69
3 244 70 71
3 208 149 244
3 340 187 69
3 379 72 73
3 300 209 187
3 209 397 194
3 187 209 194
3 187 68 69
3 269 203 182
3 103 143 203
3 283 369 182
3 397 143 103
3 182 203 239
3 369 269 182
3 68 194 67
3 194 68 187
3 67 194 103
3 103 269 66
3 269 103 203
3 65 66 269
3 269 369 65
3 103 66 67
3 194 397 103
3 369 64 65
3 187 340 300
3 145 300 167
3 301 182 135
3 226 371 295
3 90 354 142
3 152 196 306
3 21 22 374
3 291 374 22
3 374 106 189
3 291 22 23
3 205 23 24
3 100 24 25
3 345 291 386
3 291 345 374
3 386 291 205
3 154 345 386
3 205 100 183
3 100 205 24
3 183 100 141
3 205 183 386
3 291 23 205
3 139 386 183
3 25 198 100
3 374 345 106
3 318 26 27
3 314 27 28
3 318 27 314
3 28 29 285
3 393 285 107
3 28 285 314
3 314 285 270
3 141 198 299
3 141 100 198
3 299 198 318
3 119 141 299
3 318 246 299
3 318 314 246
3 270 353 246
3 246 314 270
3 285 393 270
3 299 246 243
3 198 26 318
3 183 141 392
3 285 29 107
3 198 25 26
3 393 238 270
3 345 152 106
3 345 154 152
3 350 152 154
3 350 196 152
3 160 91 139
3 139 91 154
3 154 386 139
3 160 139 392
3 392 139 183
3 350 154 91
3 261 125 350
3 125 196 350
3 178 350 91
3 91 206 178
3 160 260 331
3 206 91 160
3 331 260 95
3 206 160 201
3 392 260 160
3 331 201 160
3 392 119 260
3 306 106 152
3 119 243 255
3 392 141 119
3 293 255 243
3 255 95 260
3 353 238 174
3 119 299 243
3 174 238 146
3 293 243 353
3 353 243 246
3 293 353 174
3 255 225 95
3 225 255 293
3 225 293 92
3 331 95 286
3 146 164 153
3 377 146 238
3 225 92 228
3 92 174 153
3 323 92 153
3 92 293 174
3 146 153 174
3 95 225 223
3 146 236 164
3 255 260 119
3 270 238 353
3 164 380 153
3 377 238 393
3 189 21 374
3 30 31 107
3 107 31 123
3 122 393 107
3 181 123 32
3 32 123 31
3 181 32 33
3 107 123 122
3 123 175 122
3 175 123 181
3 175 181 388
3 308 122 175
3 388 355 341
3 355 388 181
3 177 341 355
3 388 341 165
3 181 33 355
3 240 175 388
3 355 33 34
3 122 377 393
3 34 35 177
3 35 36 279
3 37 38 356
3 38 1 39
3 36 37 265
3 279 304 177
3 177 35 279
3 279 36 265
3 265 284 279
3 38 251 356
3 251 38 39
3 108 128 251
3 251 128 356
3 251 39 40
3 356 128 265
3 356 265 37
3 177 304 341
3 34 177 355
3 128 284 265
3 236 377 308
3 377 122 308
3 346 308 240
3 236 308 346
3 341 155 165
3 165 240 388
3 384 240 165
3 346 240 384
3 175 240 308
3 309 165 155
3 346 329 215
3 215 236 346
3 329 364 215
3 236 215 164
3 384 309 129
3 309 384 165
3 309 117 129
3 384 129 329
3 384 329 346
3 215 134 164
3 309 155 216
3 377 236 146
3 304 284 114
3 304 279 284
3 378 114 284
3 114 216 155
3 136 172 108
3 172 284 128
3 172 128 108
3 41 108 40
3 40 108 251
3 378 284 172
3 114 252 216
3 252 114 378
3 256 252 378
3 117 309 216
3 136 41 42
3 271 172 136
3 256 378 271
3 136 259 271
3 271 378 172
3 108 41 136
3 117 216 252
3 114 155 304
3 341 304 155
3 136 42 259
3 107 29 30
3 129 398 329
3 261 178 375
3 178 261 350
3 375 178 298
3 375 301 135
3 102 298 201
3 298 178 206
3 201 331 157
3 375 298 335
3 92 323 228
3 157 102 201
3 283 301 335
3 335 301 375
3 335 298 195
3 335 195 283
3 157 231 102
3 231 157 190
3 372 195 231
3 102 231 195
3 298 102 195
3 231 190 372
3 157 296 190
3 301 283 182
3 286 223 296
3 331 286 157
3 214 296 223
3 296 247 190
3 228 223 225
3 95 223 286
3 268 228 323
3 214 223 228
3 380 323 153
3 126 323 380
3 247 214 339
3 214 247 296
3 339 214 144
3 163 247 339
3 228 268 144
3 144 214 228
3 144 268 151
3 126 366 268
3 169 126 199
3 144 151 339
3 126 268 323
3 126 169 366
3 332 169 168
3 296 157 286
3 206 201 298
3 190 247 110
3 195 320 283
3 320 195 372
3 320 372 267
3 287 283 320
3 267 110 94
3 110 267 372
3 94 110 337
3 267 94 61
3 372 190 110
3 254 320 267
3 64 287 63
3 369 287 64
3 63 287 254
3 267 62 254
3 62 267 61
3 254 62 63
3 287 320 254
3 94 60 61
3 369 283 287
3 247 337 110
3 247 163 337
3 163 151 317
3 59 337 163
3 387 317 366
3 366 317 151
3 387 169 332
3 366 169 387
3 151 268 366
3 58 163 317
3 60 337 59
3 59 163 58
3 57 387 56
3 57 58 317
3 56 387 332
3 332 55 56
3 57 317 387
3 55 332 161
3 337 60 94
3 339 151 163
3 199 126 380
3 261 375 312
3 329 398 364
3 364 134 215
3 290 364 398
3 207 134 364
3 185 117 219
3 185 398 129
3 219 117 278
3 398 185 192
3 380 164 134
3 185 219 250
3 199 207 168
3 199 134 207
3 173 168 207
3 168 161 332
3 220 290 192
3 290 207 364
3 250 192 185
3 207 290 292
3 192 290 398
3 250 311 192
3 219 237 250
3 134 199 380
3 278 256 213
3 278 117 252
3 213 256 156
3 278 213 237
3 344 156 259
3 156 256 271
3 43 259 42
3 213 156 277
3 252 256 278
3 43 344 259
3 213 273 237
3 213 277 273
3 383 273 277
3 250 237 313
3 344 44 111
3 44 344 43
3 383 277 111
3 45 111 44
3 344 111 277
3 156 344 277
3 273 313 237
3 278 237 219
3 129 117 185
3 45 297 111
3 161 173 334
3 173 161 168
3 334 173 292
3 161 334 54
3 193 292 220
3 292 173 207
3 220 192 311
3 292 193 334
3 220 292 290
3 302 220 311
3 334 53 54
3 53 334 193
3 53 193 52
3 52 302 51
3 302 52 193
3 396 51 302
3 193 220 302
3 302 311 396
3 161 54 55
3 162 313 349
3 162 396 311
3 313 273 349
3 49 162 349
3 111 297 383
3 297 45 46
3 297 222 383
3 349 383 222
3 273 383 349
3 47 297 46
3 162 50 396
3 162 49 50
3 396 50 51
3 48 222 47
3 222 48 49
3 47 222 297
3 46 2 47
3 349 222 49
3 162 311 313
3 313 311 250
3 168 169 199
3 156 271 259
3 142 125 261
POINT_DATA 400
SCALARS P float 1
LOOKUP_TABLE default
4538.396849
-1592.326662
-140.781837
2568.206704
-6309.927445
3868.749770
-7268.443415
3969.593391
-3503.011212
-1971.585919
-287.616290
-119.184545
-1341.838504
-1280.644291
6449.759281
-9573.523170
11207.327088
-5638.334207
625.100489
8635.594607
-4084.596204
2846.343960
4051.710128
-3443.410935
4351.640214
-2732.421330
2281.613313
-1747.718194
1399.728331
-965.618812
217.245659
823.852019
-2327.414701
3346.482979
-3436.098309
2482.037330
-636.328010
-832.550256
985.786787
2684.873845
-4116.205834
4258.894349
-2790.009324
1845.867381
-21.385705
-70.260519
425.343058
-122.641387
600.919323
-2235.736890
2606.061113
-2137.675302
-3887.941421
9157.284640
-15475.212164
20962.946886
-23477.017106
22440.484364
-16299.477627
7083.731667
365.390169
-6597.282797
7683.418824
-7998.242870
6613.913930
-6263.181889
2502.667878
-3872.909929
184.453009
-450.842548
-1893.536343
87.341761
-280.460365
-3146.907797
2845.753479
-3087.464214
-706.807894
3261.054830
-2964.311339
1427.700781
7984.309166
1430.635745
-5119.043984
1643.012821
-11003.732892
-1323.838339
-4223.926193
-688.834156
9468.005587
-1969.979055
-6678.617407
-3453.625193
-5429.810188
3464.796284
16596.337605
1944.401318
6247.208515
23410.466535
-3141.974655
-3340.441662
1550.705294
1731.989302
-14725.016910
-1540.437505
-15415.840103
14389.587326
30078.604680
-2485.913302
3524.424664
-13666.470793
-7297.235878
459.517064
-18003.834182
7201.190848
-2398.820453
-11473.644559
-6607.907550
-5647.994238
4842.628001
-1569.331384
14486.187417
-17343.087347
-51.040625
2250.099555
7654.350230
-36026.829794
-1611.189502
-1567.682415
-99.707639
-3583.913060
7870.885212
6089.512491
3437.550438
-1379.972154
3389.120483
13173.749818
-3836.200616
-4363.968306
-14133.994762
-2127.188421
-4773.012360
2383.313939
3141.035223
15236.675513
-6922.278869
-273.919127
3109.129966
3278.132420
1152.325485
3270.651803
8273.861015
6488.929793
-5998.459694
-1756.856755
736.068488
-3205.926139
-2567.291074
13751.082435
7442.455470
-2838.207333
6839.751974
-20543.780625
-5957.809023
15758.245780
-6260.861332
-1639.297702
-5871.612246
-237.424455
9849.529362
-6213.703770
5884.935885
-14798.658765
-2553.507276
-3343.156289
3991.452088
2981.451471
11693.215368
-113.434501
-24353.619194
-8555.418978
-2047.688658
-2437.827742
13707.226563
786.569771
33091.283787
7122.669798
-19169.687764
-5095.910647
7297.258488
15719.548964
-11667.413317
-24647.126813
-8509.334651
-11074.385288
3995.488518
-21399.244203
36659.183974
13282.366900
-956.498658
-4042.686903
5079.000298
-2470.025315
-12468.851212
-8804.088626
-5181.549281
-3791.235787
3245.023537
-3212.607683
-1354.988199
2874.004836
-3392.210790
-2217.770207
9297.691729
4164.738034
3201.616321
-3662.468604
5407.674822
372.702385
3080.281588
-1934.494620
7887.886137
9132.582168
-477.501524
-1393.318720
-10956.405604
-4663.956170
-1526.853233
-5911.231202
8536.225088
-4114.187010
10477.348981
11538.099739
-659.770349
-8104.627363
243.590797
-6573.848122
5548.429637
-5277.120277
-2484.022824
-18018.400958
-3550.104999
2801.794087
15766.711820
-1689.423267
-2699.021559
-3837.562355
2803.670022
13797.903347
-3110.651006
5613.210792
5057.686571
-2008.785843
-3161.827274
21425.607166
-146.883840
464.576649
-3929.281320
-4868.887736
-814.672919
2427.214625
5033.842600
30930.406026
-11896.216583
11376.056252
-4808.275180
624.256945
1736.671745
-10392.488604
-689.212481
5707.380648
200.523323
3942.076275
14213.844906
-4496.892812
-666.906160
229.263574
-12512.142416
2750.641239
4513.090026
-1480.570270
-10298.263955
-11213.760538
-14454.560994
3422.579944
52.388832
1790.302095
683.330647
1562.640869
1659.733149
-2886.415585
1216.622674
7284.087653
-349.299373
5291.341711
11674.924761
5335.510462
-2066.025330
-189.798512
21947.341899
-217.788068
-415.011939
-13320.172571
2379.323198
8049.362293
2312.146741
-7561.958292
-26989.345601
1531.840793
-2946.000988
2577.163036
-24350.284581
-10327.403514
-5181.761056
7437.696836
-1652.892603
-1358.692936
5947.735350
-6442.076752
1383.756341
-1301.960844
4869.828671
6462.242187
-3414.490855
-604.667256
7495.114545
4510.094150
-15727.094220
567.587001
3502.784608
-3914.609735
-1483.717136
-10951.236662
15009.800676
5699.352452
15749.135240
23293.801126
13572.716781
-21310.773088
2295.933722
-11629.339476
2616.134444
1134.372317
9363.867659
3703.593333
-1933.700288
-8301.609462
3341.253976
3534.130329
-334.306828
3398.598328
23068.142786
10920.633037
-12008.909953
-3416.038745
-10624.538985
868.729854
905.823455
-949.504534
13821.843298
7458.538838
-5666.513207
-6035.765298
2998.963498
-3257.903936
3784.305908
-343.481307
3736.334758
5492.989537
1906.055378
-9142.517295
-10859.086734
-3985.875252
4161.403258
9173.311056
-15160.827230
-28352.657545
-6542.744843
-2898.610907
3099.219839
1374.546896
5445.393421
-12785.860127
12288.747282
-628.721274
4210.451090
699.730702
3539.833340
-8482.199665
1122.611334
-503.423803
-376.896858
5019.153668
-3839.223116
3163.016426
-5628.660780
-11282.236857
5262.518694
-5533.885161
1203.558632
5181.007025
