# vtk DataFile Version 2.0
patchtest_tri3_mix
ASCII
DATASET POLYDATA
POINTS 30 float
0.000000 -0.500000 0.000000
1.000000 -0.500000 0.000000
1.000000 0.500000 0.000000
0.000000 0.500000 0.000000
0.250000 -0.500000 0.000000
0.500000 -0.500000 0.000000
0.750000 -0.500000 0.000000
1.000000 -0.250000 0.000000
1.000000 -0.000000 0.000000
1.000000 0.250000 0.000000
0.750000 0.500000 0.000000
0.500000 0.500000 0.000000
0.250000 0.500000 0.000000
0.000000 0.250000 0.000000
0.000000 0.000000 0.000000
0.000000 -0.250000 0.000000
0.174522 -0.363607 0.000000
0.387771 -0.301362 0.000000
0.221937 0.066272 0.000000
0.776883 0.060810 0.000000
0.459743 0.108469 0.000000
0.806922 -0.210904 0.000000
0.606307 -0.068344 0.000000
0.392329 -0.104531 0.000000
0.620392 0.266269 0.000000
0.186051 -0.158734 0.000000
0.606257 -0.296179 0.000000
0.385922 0.305394 0.000000
0.825832 0.293138 0.000000
0.187313 0.275251 0.000000
POLYGONS 42 168
3 0 16 15
3 16 0 4
3 15 16 25
3 17 25 16
3 17 4 5
3 25 23 18
3 23 25 17
3 23 22 20
3 17 16 4
3 15 25 14
3 29 13 18
3 3 29 12
3 29 3 13
3 13 14 18
3 18 20 27
3 18 14 25
3 12 27 11
3 12 29 27
3 20 24 27
3 27 29 18
3 23 20 18
3 23 17 26
3 26 22 23
3 26 5 6
3 22 26 21
3 20 22 19
3 6 1 7
3 22 21 19
3 7 21 6
3 6 21 26
3 8 21 7
3 10 24 28
3 24 20 19
3 10 11 24
3 24 19 28
3 11 27 24
3 9 28 19
3 28 2 10
3 2 28 9
3 9 19 8
3 19 21 8
3 17 5 26
POINT_DATA 30
SCALARS P float 1
LOOKUP_TABLE default
1070.743960
-8.406839
6.593719
-665.006357
1021.889798
427.550560
136.764835
-88.860411
33.056840
68.967521
-142.673009
-318.677735
-453.808335
-158.278697
19.209717
37.782538
-651.564130
-342.182738
-373.688905
-69.892127
-297.294846
39.267040
120.217968
400.492799
36.109999
566.969993
-31.463246
88.555425
-2.764744
67.657188
