# vtk DataFile Version 2.0
cantilever_Q4P1_mix
ASCII
DATASET POLYDATA
POINTS 85 float
0.000000 -6.000000 0.000000
48.000000 -6.000000 0.000000
48.000000 6.000000 0.000000
0.000000 6.000000 0.000000
3.000000 -6.000000 0.000000
6.000000 -6.000000 0.000000
9.000000 -6.000000 0.000000
12.000000 -6.000000 0.000000
15.000000 -6.000000 0.000000
18.000000 -6.000000 0.000000
21.000000 -6.000000 0.000000
24.000000 -6.000000 0.000000
27.000000 -6.000000 0.000000
30.000000 -6.000000 0.000000
33.000000 -6.000000 0.000000
36.000000 -6.000000 0.000000
39.000000 -6.000000 0.000000
42.000000 -6.000000 0.000000
45.000000 -6.000000 0.000000
48.000000 -3.000000 0.000000
48.000000 -0.000000 0.000000
48.000000 3.000000 0.000000
45.000000 6.000000 0.000000
42.000000 6.000000 0.000000
39.000000 6.000000 0.000000
36.000000 6.000000 0.000000
33.000000 6.000000 0.000000
30.000000 6.000000 0.000000
27.000000 6.000000 0.000000
24.000000 6.000000 0.000000
21.000000 6.000000 0.000000
18.000000 6.000000 0.000000
15.000000 6.000000 0.000000
12.000000 6.000000 0.000000
9.000000 6.000000 0.000000
6.000000 6.000000 0.000000
3.000000 6.000000 0.000000
0.000000 3.000000 0.000000
0.000000 0.000000 0.000000
0.000000 -3.000000 0.000000
3.000000 -3.000000 0.000000
3.000000 0.000000 0.000000
3.000000 3.000000 0.000000
6.000000 -3.000000 0.000000
6.000000 0.000000 0.000000
6.000000 3.000000 0.000000
9.000000 -3.000000 0.000000
9.000000 0.000000 0.000000
9.000000 3.000000 0.000000
12.000000 -3.000000 0.000000
12.000000 0.000000 0.000000
12.000000 3.000000 0.000000
15.000000 -3.000000 0.000000
15.000000 0.000000 0.000000
15.000000 3.000000 0.000000
18.000000 -3.000000 0.000000
18.000000 0.000000 0.000000
18.000000 3.000000 0.000000
21.000000 -3.000000 0.000000
21.000000 0.000000 0.000000
21.000000 3.000000 0.000000
24.000000 -3.000000 0.000000
24.000000 -0.000000 0.000000
24.000000 3.000000 0.000000
27.000000 -3.000000 0.000000
27.000000 -0.000000 0.000000
27.000000 3.000000 0.000000
30.000000 -3.000000 0.000000
30.000000 -0.000000 0.000000
30.000000 3.000000 0.000000
33.000000 -3.000000 0.000000
33.000000 -0.000000 0.000000
33.000000 3.000000 0.000000
36.000000 -3.000000 0.000000
36.000000 -0.000000 0.000000
36.000000 3.000000 0.000000
39.000000 -3.000000 0.000000
39.000000 -0.000000 0.000000
39.000000 3.000000 0.000000
42.000000 -3.000000 0.000000
42.000000 -0.000000 0.000000
42.000000 3.000000 0.000000
45.000000 -3.000000 0.000000
45.000000 -0.000000 0.000000
45.000000 3.000000 0.000000
POLYGONS 64 320
4 0 4 40 39
4 39 40 41 38
4 38 41 42 37
4 37 42 36 3
4 4 5 43 40
4 40 43 44 41
4 41 44 45 42
4 42 45 35 36
4 5 6 46 43
4 43 46 47 44
4 44 47 48 45
4 45 48 34 35
4 6 7 49 46
4 46 49 50 47
4 47 50 51 48
4 48 51 33 34
4 7 8 52 49
4 49 52 53 50
4 50 53 54 51
4 51 54 32 33
4 8 9 55 52
4 52 55 56 53
4 53 56 57 54
4 54 57 31 32
4 9 10 58 55
4 55 58 59 56
4 56 59 60 57
4 57 60 30 31
4 10 11 61 58
4 58 61 62 59
4 59 62 63 60
4 60 63 29 30
4 11 12 64 61
4 61 64 65 62
4 62 65 66 63
4 63 66 28 29
4 12 13 67 64
4 64 67 68 65
4 65 68 69 66
4 66 69 27 28
4 13 14 70 67
4 67 70 71 68
4 68 71 72 69
4 69 72 26 27
4 14 15 73 70
4 70 73 74 71
4 71 74 75 72
4 72 75 25 26
4 15 16 76 73
4 73 76 77 74
4 74 77 78 75
4 75 78 24 25
4 16 17 79 76
4 76 79 80 77
4 77 80 81 78
4 78 81 23 24
4 17 18 82 79
4 79 82 83 80
4 80 83 84 81
4 81 84 22 23
4 18 1 19 82
4 82 19 20 83
4 83 20 21 84
4 84 21 2 22
POINT_DATA 85
VECTORS U float
-0.000035 0.001412 0.000000
0.012578 0.071433 0.000000
-0.012578 0.071433 0.000000
0.000035 0.001412 0.000000
0.001477 0.002019 0.000000
0.002904 0.003303 0.000000
0.004234 0.005284 0.000000
0.005468 0.007905 0.000000
0.006602 0.011119 0.000000
0.007637 0.014875 0.000000
0.008574 0.019124 0.000000
0.009412 0.023817 0.000000
0.010152 0.028904 0.000000
0.010793 0.034336 0.000000
0.011335 0.040064 0.000000
0.011779 0.046039 0.000000
0.012123 0.052210 0.000000
0.012371 0.058530 0.000000
0.012518 0.064945 0.000000
0.006210 0.071416 0.000000
-0.000000 0.071411 0.000000
-0.006210 0.071416 0.000000
-0.012518 0.064945 0.000000
-0.012371 0.058530 0.000000
-0.012123 0.052210 0.000000
-0.011779 0.046039 0.000000
-0.011335 0.040064 0.000000
-0.010793 0.034336 0.000000
-0.010152 0.028904 0.000000
-0.009412 0.023817 0.000000
-0.008574 0.019124 0.000000
-0.007637 0.014875 0.000000
-0.006602 0.011119 0.000000
-0.005468 0.007905 0.000000
-0.004234 0.005284 0.000000
-0.002904 0.003303 0.000000
-0.001477 0.002019 0.000000
0.000088 0.000275 0.000000
-0.000000 -0.000088 0.000000
-0.000088 0.000275 0.000000
0.000653 0.000902 0.000000
-0.000000 0.000524 0.000000
-0.000653 0.000902 0.000000
0.001378 0.002268 0.000000
-0.000000 0.001922 0.000000
-0.001378 0.002268 0.000000
0.002044 0.004322 0.000000
-0.000000 0.004002 0.000000
-0.002044 0.004322 0.000000
0.002660 0.007018 0.000000
-0.000000 0.006722 0.000000
-0.002660 0.007018 0.000000
0.003227 0.010306 0.000000
-0.000000 0.010035 0.000000
-0.003227 0.010306 0.000000
0.003745 0.014135 0.000000
-0.000000 0.013889 0.000000
-0.003745 0.014135 0.000000
0.004213 0.018458 0.000000
-0.000000 0.018236 0.000000
-0.004213 0.018458 0.000000
0.004632 0.023225 0.000000
-0.000000 0.023028 0.000000
-0.004632 0.023225 0.000000
0.005002 0.028386 0.000000
-0.000000 0.028213 0.000000
-0.005002 0.028386 0.000000
0.005322 0.033892 0.000000
-0.000000 0.033744 0.000000
-0.005322 0.033892 0.000000
0.005594 0.039694 0.000000
-0.000000 0.039571 0.000000
-0.005594 0.039694 0.000000
0.005815 0.045743 0.000000
-0.000000 0.045644 0.000000
-0.005815 0.045743 0.000000
0.005988 0.051989 0.000000
-0.000000 0.051914 0.000000
-0.005988 0.051989 0.000000
0.006111 0.058382 0.000000
-0.000000 0.058333 0.000000
-0.006111 0.058382 0.000000
0.006182 0.064875 0.000000
-0.000000 0.064852 0.000000
-0.006182 0.064875 0.000000
CELL_DATA 64
SCALARS P float 1
LOOKUP_TABLE default
776.534886
266.904688
-266.904688
-776.534885
711.623352
238.828003
-238.828002
-711.623351
666.125383
220.719831
-220.719831
-666.125384
616.082064
205.934291
-205.934291
-616.082064
567.135262
188.779658
-188.779658
-567.135262
517.632773
172.676096
-172.676096
-517.632773
468.429164
156.074284
-156.074284
-468.429164
419.069163
139.731754
-139.731754
-419.069163
369.804228
123.230214
-123.230214
-369.804228
320.453691
106.871941
-106.871941
-320.453691
271.225643
90.309481
-90.309481
-271.225643
221.773676
74.122021
-74.122021
-221.773676
172.751797
57.170272
-57.170272
-172.751797
122.850794
41.838446
-41.838446
-122.850794
75.592258
23.823951
-23.823951
-75.592258
20.116019
5.813185
-5.813185
-20.116019
