# vtk DataFile Version 2.0
patchtest_tri3_mix
ASCII
DATASET POLYDATA
POINTS 23 float
0.000000 -0.500000 0.000000
1.000000 -0.500000 0.000000
1.000000 0.500000 0.000000
0.000000 0.500000 0.000000
0.250000 -0.500000 0.000000
0.500000 -0.500000 0.000000
0.750000 -0.500000 0.000000
1.000000 -0.250000 0.000000
1.000000 -0.000000 0.000000
1.000000 0.250000 0.000000
0.750000 0.500000 0.000000
0.500000 0.500000 0.000000
0.250000 0.500000 0.000000
0.000000 0.250000 0.000000
0.000000 0.000000 0.000000
0.000000 -0.250000 0.000000
0.237391 -0.262442 0.000000
0.729476 0.004938 0.000000
0.268633 -0.007230 0.000000
0.296705 0.254121 0.000000
0.745980 -0.257278 0.000000
0.490214 -0.208098 0.000000
0.591261 0.244259 0.000000
POLYGONS 28 112
3 15 0 16
3 21 16 5
3 4 16 0
3 5 16 4
3 15 16 14
3 18 16 21
3 13 14 18
3 3 13 12
3 13 19 12
3 19 13 18
3 22 19 18
3 11 12 19
3 14 16 18
3 17 18 21
3 5 6 20
3 20 6 1
3 21 20 17
3 1 7 20
3 7 8 20
3 17 20 8
3 10 11 22
3 11 19 22
3 22 18 17
3 9 22 17
3 10 9 2
3 9 10 22
3 17 8 9
3 5 20 21
POINT_DATA 23
SCALARS P float 1
LOOKUP_TABLE default
716.523322
-0.967742
16.927530
-684.353001
228.904112
211.139644
101.891076
-76.812840
1.851705
70.002487
-132.141172
-221.287926
-211.748603
-126.889766
1.298818
109.744762
172.306864
-13.786804
6.930315
-161.899903
44.222668
70.002327
-38.743452
