# vtk DataFile Version 2.0
cantilever_tri6_mix
ASCII
DATASET POLYDATA
POINTS 50 float
0.000000 -6.000000 0.000000
48.000000 -6.000000 0.000000
48.000000 6.000000 0.000000
0.000000 6.000000 0.000000
4.000000 -6.000000 0.000000
8.000000 -6.000000 0.000000
12.000000 -6.000000 0.000000
16.000000 -6.000000 0.000000
20.000000 -6.000000 0.000000
24.000000 -6.000000 0.000000
28.000000 -6.000000 0.000000
32.000000 -6.000000 0.000000
36.000000 -6.000000 0.000000
40.000000 -6.000000 0.000000
44.000000 -6.000000 0.000000
48.000000 -2.000000 0.000000
48.000000 2.000000 0.000000
44.000000 6.000000 0.000000
40.000000 6.000000 0.000000
36.000000 6.000000 0.000000
32.000000 6.000000 0.000000
28.000000 6.000000 0.000000
24.000000 6.000000 0.000000
20.000000 6.000000 0.000000
16.000000 6.000000 0.000000
12.000000 6.000000 0.000000
8.000000 6.000000 0.000000
4.000000 6.000000 0.000000
0.000000 2.000000 0.000000
0.000000 -2.000000 0.000000
40.124357 -2.009698 0.000000
3.820382 1.992809 0.000000
4.448186 -2.013291 0.000000
29.427385 1.969248 0.000000
8.931235 -1.991302 0.000000
17.986740 -1.944280 0.000000
35.892369 -2.033345 0.000000
13.445004 -1.957354 0.000000
38.689860 1.965375 0.000000
44.154919 -2.002554 0.000000
27.032677 -1.996570 0.000000
22.537597 -1.960325 0.000000
11.842508 2.029172 0.000000
43.352494 1.997923 0.000000
7.751552 2.010215 0.000000
24.910122 2.010554 0.000000
20.452625 2.037468 0.000000
31.497927 -2.021822 0.000000
34.039620 1.948163 0.000000
16.078352 2.051802 0.000000
POLYGONS 68 272
3 0 4 29
3 4 5 32
3 31 29 32
3 32 29 4
3 34 32 5
3 34 44 32
3 5 6 34
3 6 7 37
3 35 7 8
3 37 7 35
3 41 8 9
3 45 46 41
3 41 35 8
3 6 37 34
3 42 34 37
3 3 28 31
3 28 29 31
3 31 32 44
3 27 31 44
3 27 3 31
3 26 27 44
3 44 42 26
3 42 37 49
3 42 44 34
3 46 35 41
3 49 35 46
3 24 25 49
3 49 23 24
3 23 49 46
3 25 42 49
3 23 46 22
3 42 25 26
3 37 35 49
3 41 9 40
3 10 11 47
3 11 12 36
3 47 33 40
3 47 40 10
3 36 47 11
3 36 48 47
3 12 13 36
3 40 45 41
3 13 14 30
3 14 1 39
3 14 39 30
3 39 1 15
3 43 30 39
3 30 38 36
3 13 30 36
3 16 39 15
3 21 45 33
3 33 45 40
3 48 33 47
3 20 33 48
3 21 22 45
3 20 21 33
3 48 19 20
3 45 22 46
3 30 43 38
3 43 39 16
3 43 16 17
3 38 43 18
3 18 19 38
3 2 17 16
3 18 43 17
3 38 19 48
3 48 36 38
3 40 9 10
POINT_DATA 50
SCALARS P float 1
LOOKUP_TABLE default
922.828131
-36.763593
-10.651727
-1077.030811
597.259811
1313.750159
396.750326
912.607668
524.292604
481.910556
529.592962
211.781865
397.693641
44.069506
179.938870
54.247474
-3.153090
-72.690159
-225.337030
-135.041104
-550.553616
-131.182049
-918.697137
-75.349530
-1351.207187
4.715501
-1659.971960
-340.633022
-802.935593
1041.508682
227.774289
-533.918454
207.468908
-237.262186
119.675514
-29.452167
-87.996263
478.347571
-135.410153
-108.137178
-44.505270
396.582513
-735.528762
12.507576
225.392742
-20.029068
-421.468522
299.082690
-12.018316
103.733845
