# vtk DataFile Version 2.0
cantilever_tri3_mix
ASCII
DATASET POLYDATA
POINTS 85 float
0.000000 -6.000000 0.000000
48.000000 -6.000000 0.000000
48.000000 6.000000 0.000000
0.000000 6.000000 0.000000
3.000000 -6.000000 0.000000
6.000000 -6.000000 0.000000
9.000000 -6.000000 0.000000
12.000000 -6.000000 0.000000
15.000000 -6.000000 0.000000
18.000000 -6.000000 0.000000
21.000000 -6.000000 0.000000
24.000000 -6.000000 0.000000
27.000000 -6.000000 0.000000
30.000000 -6.000000 0.000000
33.000000 -6.000000 0.000000
36.000000 -6.000000 0.000000
39.000000 -6.000000 0.000000
42.000000 -6.000000 0.000000
45.000000 -6.000000 0.000000
48.000000 -3.000000 0.000000
48.000000 -0.000000 0.000000
48.000000 3.000000 0.000000
45.000000 6.000000 0.000000
42.000000 6.000000 0.000000
39.000000 6.000000 0.000000
36.000000 6.000000 0.000000
33.000000 6.000000 0.000000
30.000000 6.000000 0.000000
27.000000 6.000000 0.000000
24.000000 6.000000 0.000000
21.000000 6.000000 0.000000
18.000000 6.000000 0.000000
15.000000 6.000000 0.000000
12.000000 6.000000 0.000000
9.000000 6.000000 0.000000
6.000000 6.000000 0.000000
3.000000 6.000000 0.000000
0.000000 3.000000 0.000000
0.000000 0.000000 0.000000
0.000000 -3.000000 0.000000
3.000000 -3.000000 0.000000
3.000000 0.000000 0.000000
3.000000 3.000000 0.000000
6.000000 -3.000000 0.000000
6.000000 0.000000 0.000000
6.000000 3.000000 0.000000
9.000000 -3.000000 0.000000
9.000000 0.000000 0.000000
9.000000 3.000000 0.000000
12.000000 -3.000000 0.000000
12.000000 0.000000 0.000000
12.000000 3.000000 0.000000
15.000000 -3.000000 0.000000
15.000000 0.000000 0.000000
15.000000 3.000000 0.000000
18.000000 -3.000000 0.000000
18.000000 0.000000 0.000000
18.000000 3.000000 0.000000
21.000000 -3.000000 0.000000
21.000000 0.000000 0.000000
21.000000 3.000000 0.000000
24.000000 -3.000000 0.000000
24.000000 -0.000000 0.000000
24.000000 3.000000 0.000000
27.000000 -3.000000 0.000000
27.000000 -0.000000 0.000000
27.000000 3.000000 0.000000
30.000000 -3.000000 0.000000
30.000000 -0.000000 0.000000
30.000000 3.000000 0.000000
33.000000 -3.000000 0.000000
33.000000 -0.000000 0.000000
33.000000 3.000000 0.000000
36.000000 -3.000000 0.000000
36.000000 -0.000000 0.000000
36.000000 3.000000 0.000000
39.000000 -3.000000 0.000000
39.000000 -0.000000 0.000000
39.000000 3.000000 0.000000
42.000000 -3.000000 0.000000
42.000000 -0.000000 0.000000
42.000000 3.000000 0.000000
45.000000 -3.000000 0.000000
45.000000 -0.000000 0.000000
45.000000 3.000000 0.000000
POLYGONS 128 512
3 0 4 39
3 39 4 40
3 39 40 38
3 38 40 41
3 38 41 37
3 37 41 42
3 37 42 3
3 3 42 36
3 4 5 40
3 40 5 43
3 40 43 41
3 41 43 44
3 41 44 42
3 42 44 45
3 42 45 36
3 36 45 35
3 5 6 43
3 43 6 46
3 43 46 44
3 44 46 47
3 44 47 45
3 45 47 48
3 45 48 35
3 35 48 34
3 6 7 46
3 46 7 49
3 46 49 47
3 47 49 50
3 47 50 48
3 48 50 51
3 48 51 34
3 34 51 33
3 7 8 49
3 49 8 52
3 49 52 50
3 50 52 53
3 50 53 51
3 51 53 54
3 51 54 33
3 33 54 32
3 8 9 52
3 52 9 55
3 52 55 53
3 53 55 56
3 53 56 54
3 54 56 57
3 54 57 32
3 32 57 31
3 9 10 55
3 55 10 58
3 55 58 56
3 56 58 59
3 56 59 57
3 57 59 60
3 57 60 31
3 31 60 30
3 10 11 58
3 58 11 61
3 58 61 59
3 59 61 62
3 59 62 60
3 60 62 63
3 60 63 30
3 30 63 29
3 11 12 61
3 61 12 64
3 61 64 62
3 62 64 65
3 62 65 63
3 63 65 66
3 63 66 29
3 29 66 28
3 12 13 64
3 64 13 67
3 64 67 65
3 65 67 68
3 65 68 66
3 66 68 69
3 66 69 28
3 28 69 27
3 13 14 67
3 67 14 70
3 67 70 68
3 68 70 71
3 68 71 69
3 69 71 72
3 69 72 27
3 27 72 26
3 14 15 70
3 70 15 73
3 70 73 71
3 71 73 74
3 71 74 72
3 72 74 75
3 72 75 26
3 26 75 25
3 15 16 73
3 73 16 76
3 73 76 74
3 74 76 77
3 74 77 75
3 75 77 78
3 75 78 25
3 25 78 24
3 16 17 76
3 76 17 79
3 76 79 77
3 77 79 80
3 77 80 78
3 78 80 81
3 78 81 24
3 24 81 23
3 17 18 79
3 79 18 82
3 79 82 80
3 80 82 83
3 80 83 81
3 81 83 84
3 81 84 23
3 23 84 22
3 18 1 82
3 82 1 19
3 82 19 83
3 83 19 20
3 83 20 84
3 84 20 21
3 84 21 22
3 22 21 2
CELL_DATA 128
SCALARS PRESSURE float 1
LOOKUP_TABLE default
6122.261484
1457.050249
3233.738946
-1057.482576
753.921857
-3957.160884
-1922.299519
-6076.372315
5424.196693
1650.142572
3534.096250
-555.457116
975.559868
-3159.851829
-1090.647321
-5534.377143
5010.088843
1310.332675
3008.796880
-825.887995
669.493126
-3252.488470
-1241.174681
-5154.667723
4631.734242
1320.976453
2918.531593
-501.999835
800.934990
-2810.027010
-921.533556
-4794.370606
4213.396688
1128.609679
2610.911106
-635.513179
608.910565
-2781.914107
-1033.874840
-4394.070123
3862.190688
1088.844941
2419.388974
-483.713887
608.388651
-2390.055493
-763.473395
-4032.067381
3469.989786
993.938546
2179.306822
-522.922098
496.915860
-2283.128917
-804.439460
-3652.436321
3122.026481
882.182243
1925.355739
-409.104181
482.521568
-1951.571282
-630.042000
-3290.371059
2723.088914
789.539073
1694.758444
-387.326313
431.056489
-1785.102634
-611.391857
-2910.872068
2360.980513
691.800235
1460.710222
-316.280069
374.602618
-1519.751280
-473.556052
-2526.709786
1970.159137
618.403679
1247.722077
-276.632942
310.435136
-1328.416065
-411.388986
-2152.940569
1608.964487
520.055555
1003.082165
-228.339682
246.687131
-1051.196099
-279.272378
-1778.827120
1230.930847
430.308944
772.572953
-158.562810
208.549947
-858.860506
-228.309415
-1414.053027
850.853572
314.315383
530.612358
-97.600029
152.858221
-605.788746
-113.957261
-1020.644036
498.608105
247.448302
310.700005
-45.507465
90.078023
-377.780733
-12.926302
-694.951268
25.002065
72.593041
20.042544
-8.032417
22.690063
-72.612156
109.883285
-192.742217
