# vtk DataFile Version 2.0
cantilever_tri3_mix
ASCII
DATASET POLYDATA
POINTS 1326 float
0.000000 0.000000 0.000000
48.000000 44.000000 0.000000
48.000000 60.000000 0.000000
0.000000 44.000000 0.000000
0.960000 0.880000 0.000000
1.920000 1.760000 0.000000
2.880000 2.640000 0.000000
3.840000 3.520000 0.000000
4.800000 4.400000 0.000000
5.760000 5.280000 0.000000
6.720000 6.160000 0.000000
7.680000 7.040000 0.000000
8.640000 7.920000 0.000000
9.600000 8.800000 0.000000
10.560000 9.680000 0.000000
11.520000 10.560000 0.000000
12.480000 11.440000 0.000000
13.440000 12.320000 0.000000
14.400000 13.200000 0.000000
15.360000 14.080000 0.000000
16.320000 14.960000 0.000000
17.280000 15.840000 0.000000
18.240000 16.720000 0.000000
19.200000 17.600000 0.000000
20.160000 18.480000 0.000000
21.120000 19.360000 0.000000
22.080000 20.240000 0.000000
23.040000 21.120000 0.000000
24.000000 22.000000 0.000000
24.960000 22.880000 0.000000
25.920000 23.760000 0.000000
26.880000 24.640000 0.000000
27.840000 25.520000 0.000000
28.800000 26.400000 0.000000
29.760000 27.280000 0.000000
30.720000 28.160000 0.000000
31.680000 29.040000 0.000000
32.640000 29.920000 0.000000
33.600000 30.800000 0.000000
34.560000 31.680000 0.000000
35.520000 32.560000 0.000000
36.480000 33.440000 0.000000
37.440000 34.320000 0.000000
38.400000 35.200000 0.000000
39.360000 36.080000 0.000000
40.320000 36.960000 0.000000
41.280000 37.840000 0.000000
42.240000 38.720000 0.000000
43.200000 39.600000 0.000000
44.160000 40.480000 0.000000
45.120000 41.360000 0.000000
46.080000 42.240000 0.000000
47.040000 43.120000 0.000000
48.000000 44.640000 0.000000
48.000000 45.280000 0.000000
48.000000 45.920000 0.000000
48.000000 46.560000 0.000000
48.000000 47.200000 0.000000
48.000000 47.840000 0.000000
48.000000 48.480000 0.000000
48.000000 49.120000 0.000000
48.000000 49.760000 0.000000
48.000000 50.400000 0.000000
48.000000 51.040000 0.000000
48.000000 51.680000 0.000000
48.000000 52.320000 0.000000
48.000000 52.960000 0.000000
48.000000 53.600000 0.000000
48.000000 54.240000 0.000000
48.000000 54.880000 0.000000
48.000000 55.520000 0.000000
48.000000 56.160000 0.000000
48.000000 56.800000 0.000000
48.000000 57.440000 0.000000
48.000000 58.080000 0.000000
48.000000 58.720000 0.000000
48.000000 59.360000 0.000000
47.040000 59.680000 0.000000
46.080000 59.360000 0.000000
45.120000 59.040000 0.000000
44.160000 58.720000 0.000000
43.200000 58.400000 0.000000
42.240000 58.080000 0.000000
41.280000 57.760000 0.000000
40.320000 57.440000 0.000000
39.360000 57.120000 0.000000
38.400000 56.800000 0.000000
37.440000 56.480000 0.000000
36.480000 56.160000 0.000000
35.520000 55.840000 0.000000
34.560000 55.520000 0.000000
33.600000 55.200000 0.000000
32.640000 54.880000 0.000000
31.680000 54.560000 0.000000
30.720000 54.240000 0.000000
29.760000 53.920000 0.000000
28.800000 53.600000 0.000000
27.840000 53.280000 0.000000
26.880000 52.960000 0.000000
25.920000 52.640000 0.000000
24.960000 52.320000 0.000000
24.000000 52.000000 0.000000
23.040000 51.680000 0.000000
22.080000 51.360000 0.000000
21.120000 51.040000 0.000000
20.160000 50.720000 0.000000
19.200000 50.400000 0.000000
18.240000 50.080000 0.000000
17.280000 49.760000 0.000000
16.320000 49.440000 0.000000
15.360000 49.120000 0.000000
14.400000 48.800000 0.000000
13.440000 48.480000 0.000000
12.480000 48.160000 0.000000
11.520000 47.840000 0.000000
10.560000 47.520000 0.000000
9.600000 47.200000 0.000000
8.640000 46.880000 0.000000
7.680000 46.560000 0.000000
6.720000 46.240000 0.000000
5.760000 45.920000 0.000000
4.800000 45.600000 0.000000
3.840000 45.280000 0.000000
2.880000 44.960000 0.000000
1.920000 44.640000 0.000000
0.960000 44.320000 0.000000
0.000000 42.240000 0.000000
0.000000 40.480000 0.000000
0.000000 38.720000 0.000000
0.000000 36.960000 0.000000
0.000000 35.200000 0.000000
0.000000 33.440000 0.000000
0.000000 31.680000 0.000000
0.000000 29.920000 0.000000
0.000000 28.160000 0.000000
0.000000 26.400000 0.000000
0.000000 24.640000 0.000000
0.000000 22.880000 0.000000
0.000000 21.120000 0.000000
0.000000 19.360000 0.000000
0.000000 17.600000 0.000000
0.000000 15.840000 0.000000
0.000000 14.080000 0.000000
0.000000 12.320000 0.000000
0.000000 10.560000 0.000000
0.000000 8.800000 0.000000
0.000000 7.040000 0.000000
0.000000 5.280000 0.000000
0.000000 3.520000 0.000000
0.000000 1.760000 0.000000
0.960000 2.617600 0.000000
0.960000 4.355200 0.000000
0.960000 6.092800 0.000000
0.960000 7.830400 0.000000
0.960000 9.568000 0.000000
0.960000 11.305600 0.000000
0.960000 13.043200 0.000000
0.960000 14.780800 0.000000
0.960000 16.518400 0.000000
0.960000 18.256000 0.000000
0.960000 19.993600 0.000000
0.960000 21.731200 0.000000
0.960000 23.468800 0.000000
0.960000 25.206400 0.000000
0.960000 26.944000 0.000000
0.960000 28.681600 0.000000
0.960000 30.419200 0.000000
0.960000 32.156800 0.000000
0.960000 33.894400 0.000000
0.960000 35.632000 0.000000
0.960000 37.369600 0.000000
0.960000 39.107200 0.000000
0.960000 40.844800 0.000000
0.960000 42.582400 0.000000
1.920000 3.475200 0.000000
1.920000 5.190400 0.000000
1.920000 6.905600 0.000000
1.920000 8.620800 0.000000
1.920000 10.336000 0.000000
1.920000 12.051200 0.000000
1.920000 13.766400 0.000000
1.920000 15.481600 0.000000
1.920000 17.196800 0.000000
1.920000 18.912000 0.000000
1.920000 20.627200 0.000000
1.920000 22.342400 0.000000
1.920000 24.057600 0.000000
1.920000 25.772800 0.000000
1.920000 27.488000 0.000000
1.920000 29.203200 0.000000
1.920000 30.918400 0.000000
1.920000 32.633600 0.000000
1.920000 34.348800 0.000000
1.920000 36.064000 0.000000
1.920000 37.779200 0.000000
1.920000 39.494400 0.000000
1.920000 41.209600 0.000000
1.920000 42.924800 0.000000
2.880000 4.332800 0.000000
2.880000 6.025600 0.000000
2.880000 7.718400 0.000000
2.880000 9.411200 0.000000
2.880000 11.104000 0.000000
2.880000 12.796800 0.000000
2.880000 14.489600 0.000000
2.880000 16.182400 0.000000
2.880000 17.875200 0.000000
2.880000 19.568000 0.000000
2.880000 21.260800 0.000000
2.880000 22.953600 0.000000
2.880000 24.646400 0.000000
2.880000 26.339200 0.000000
2.880000 28.032000 0.000000
2.880000 29.724800 0.000000
2.880000 31.417600 0.000000
2.880000 33.110400 0.000000
2.880000 34.803200 0.000000
2.880000 36.496000 0.000000
2.880000 38.188800 0.000000
2.880000 39.881600 0.000000
2.880000 41.574400 0.000000
2.880000 43.267200 0.000000
3.840000 5.190400 0.000000
3.840000 6.860800 0.000000
3.840000 8.531200 0.000000
3.840000 10.201600 0.000000
3.840000 11.872000 0.000000
3.840000 13.542400 0.000000
3.840000 15.212800 0.000000
3.840000 16.883200 0.000000
3.840000 18.553600 0.000000
3.840000 20.224000 0.000000
3.840000 21.894400 0.000000
3.840000 23.564800 0.000000
3.840000 25.235200 0.000000
3.840000 26.905600 0.000000
3.840000 28.576000 0.000000
3.840000 30.246400 0.000000
3.840000 31.916800 0.000000
3.840000 33.587200 0.000000
3.840000 35.257600 0.000000
3.840000 36.928000 0.000000
3.840000 38.598400 0.000000
3.840000 40.268800 0.000000
3.840000 41.939200 0.000000
3.840000 43.609600 0.000000
4.800000 6.048000 0.000000
4.800000 7.696000 0.000000
4.800000 9.344000 0.000000
4.800000 10.992000 0.000000
4.800000 12.640000 0.000000
4.800000 14.288000 0.000000
4.800000 15.936000 0.000000
4.800000 17.584000 0.000000
4.800000 19.232000 0.000000
4.800000 20.880000 0.000000
4.800000 22.528000 0.000000
4.800000 24.176000 0.000000
4.800000 25.824000 0.000000
4.800000 27.472000 0.000000
4.800000 29.120000 0.000000
4.800000 30.768000 0.000000
4.800000 32.416000 0.000000
4.800000 34.064000 0.000000
4.800000 35.712000 0.000000
4.800000 37.360000 0.000000
4.800000 39.008000 0.000000
4.800000 40.656000 0.000000
4.800000 42.304000 0.000000
4.800000 43.952000 0.000000
5.760000 6.905600 0.000000
5.760000 8.531200 0.000000
5.760000 10.156800 0.000000
5.760000 11.782400 0.000000
5.760000 13.408000 0.000000
5.760000 15.033600 0.000000
5.760000 16.659200 0.000000
5.760000 18.284800 0.000000
5.760000 19.910400 0.000000
5.760000 21.536000 0.000000
5.760000 23.161600 0.000000
5.760000 24.787200 0.000000
5.760000 26.412800 0.000000
5.760000 28.038400 0.000000
5.760000 29.664000 0.000000
5.760000 31.289600 0.000000
5.760000 32.915200 0.000000
5.760000 34.540800 0.000000
5.760000 36.166400 0.000000
5.760000 37.792000 0.000000
5.760000 39.417600 0.000000
5.760000 41.043200 0.000000
5.760000 42.668800 0.000000
5.760000 44.294400 0.000000
6.720000 7.763200 0.000000
6.720000 9.366400 0.000000
6.720000 10.969600 0.000000
6.720000 12.572800 0.000000
6.720000 14.176000 0.000000
6.720000 15.779200 0.000000
6.720000 17.382400 0.000000
6.720000 18.985600 0.000000
6.720000 20.588800 0.000000
6.720000 22.192000 0.000000
6.720000 23.795200 0.000000
6.720000 25.398400 0.000000
6.720000 27.001600 0.000000
6.720000 28.604800 0.000000
6.720000 30.208000 0.000000
6.720000 31.811200 0.000000
6.720000 33.414400 0.000000
6.720000 35.017600 0.000000
6.720000 36.620800 0.000000
6.720000 38.224000 0.000000
6.720000 39.827200 0.000000
6.720000 41.430400 0.000000
6.720000 43.033600 0.000000
6.720000 44.636800 0.000000
7.680000 8.620800 0.000000
7.680000 10.201600 0.000000
7.680000 11.782400 0.000000
7.680000 13.363200 0.000000
7.680000 14.944000 0.000000
7.680000 16.524800 0.000000
7.680000 18.105600 0.000000
7.680000 19.686400 0.000000
7.680000 21.267200 0.000000
7.680000 22.848000 0.000000
7.680000 24.428800 0.000000
7.680000 26.009600 0.000000
7.680000 27.590400 0.000000
7.680000 29.171200 0.000000
7.680000 30.752000 0.000000
7.680000 32.332800 0.000000
7.680000 33.913600 0.000000
7.680000 35.494400 0.000000
7.680000 37.075200 0.000000
7.680000 38.656000 0.000000
7.680000 40.236800 0.000000
7.680000 41.817600 0.000000
7.680000 43.398400 0.000000
7.680000 44.979200 0.000000
8.640000 9.478400 0.000000
8.640000 11.036800 0.000000
8.640000 12.595200 0.000000
8.640000 14.153600 0.000000
8.640000 15.712000 0.000000
8.640000 17.270400 0.000000
8.640000 18.828800 0.000000
8.640000 20.387200 0.000000
8.640000 21.945600 0.000000
[...]
POINT_DATA 1326
VECTORS U float
0.000000 0.000000 0.000000
-2.729759 12.020907 0.000000
-6.702236 13.650578 0.000000
-0.000000 -0.000000 0.000000
0.000000 0.093735 0.000000
0.000002 0.187944 0.000000
0.000004 0.282770 0.000000
0.000008 0.378360 0.000000
0.000012 0.474873 0.000000
0.000019 0.572479 0.000000
0.000027 0.671359 0.000000
0.000038 0.771705 0.000000
0.000050 0.873726 0.000000
0.000065 0.977646 0.000000
0.000082 1.083707 0.000000
0.000102 1.192172 0.000000
0.000125 1.303329 0.000000
0.000150 1.417490 0.000000
0.000179 1.534998 0.000000
0.000211 1.656229 0.000000
0.000246 1.781598 0.000000
0.000285 1.911561 0.000000
0.000327 2.046622 0.000000
0.000373 2.187334 0.000000
0.000423 2.334311 0.000000
0.000475 2.488225 0.000000
0.000532 2.649820 0.000000
0.000592 2.819909 0.000000
0.000654 2.999387 0.000000
-0.045769 3.202949 0.000000
-0.094133 3.414692 0.000000
-0.144635 3.635287 0.000000
-0.197500 3.865426 0.000000
-0.252990 4.105814 0.000000
-0.311406 4.357163 0.000000
-0.373090 4.620192 0.000000
-0.438429 4.895619 0.000000
-0.507859 5.184155 0.000000
-0.581868 5.486495 0.000000
-0.660996 5.803317 0.000000
-0.745839 6.135268 0.000000
-0.837050 6.482955 0.000000
-0.935335 6.846944 0.000000
-1.041459 7.227742 0.000000
-1.156237 7.625794 0.000000
-1.280532 8.041478 0.000000
-1.415247 8.475090 0.000000
-1.561319 8.926850 0.000000
-1.719709 9.396893 0.000000
-1.891384 9.885274 0.000000
-2.077308 10.391972 0.000000
-2.278422 10.916902 0.000000
-2.495626 11.459933 0.000000
-2.909804 12.019581 0.000000
-3.086121 12.025462 0.000000
-3.259021 12.038157 0.000000
-3.428800 12.057315 0.000000
-3.595739 12.082622 0.000000
-3.760109 12.113802 0.000000
-3.922173 12.150612 0.000000
-4.082181 12.192838 0.000000
-4.240379 12.240296 0.000000
-4.397003 12.292830 0.000000
-4.552284 12.350305 0.000000
-4.706446 12.412616 0.000000
-4.859707 12.479674 0.000000
-5.012280 12.551417 0.000000
-5.164372 12.627801 0.000000
-5.316188 12.708802 0.000000
-5.467927 12.794414 0.000000
-5.619785 12.884651 0.000000
-5.771955 12.979544 0.000000
-5.924629 13.079141 0.000000
-6.077996 13.183508 0.000000
-6.232248 13.292726 0.000000
-6.387577 13.406896 0.000000
-6.544178 13.526136 0.000000
-6.436544 13.135562 0.000000
-6.179144 12.637393 0.000000
-5.929527 12.155534 0.000000
-5.687221 11.689453 0.000000
-5.451795 11.238619 0.000000
-5.222853 10.802496 0.000000
-5.000037 10.380535 0.000000
-4.783015 9.972174 0.000000
-4.571483 9.576837 0.000000
-4.365162 9.193934 0.000000
-4.163793 8.822864 0.000000
-3.967142 8.463014 0.000000
-3.774991 8.113769 0.000000
-3.587142 7.774507 0.000000
-3.403414 7.444609 0.000000
-3.223642 7.123461 0.000000
-3.047678 6.810454 0.000000
-2.875390 6.504991 0.000000
-2.706660 6.206492 0.000000
-2.541385 5.914390 0.000000
-2.379477 5.628142 0.000000
-2.220863 5.347226 0.000000
-2.065484 5.071147 0.000000
-1.913295 4.799438 0.000000
-1.764267 4.531661 0.000000
-1.621336 4.270803 0.000000
-1.487575 4.020113 0.000000
-1.362663 3.779161 0.000000
-1.246225 3.547498 0.000000
-1.137845 3.324661 0.000000
-1.037077 3.110171 0.000000
-0.943453 2.903538 0.000000
-0.856497 2.704267 0.000000
-0.775728 2.511858 0.000000
-0.700670 2.325812 0.000000
-0.630861 2.145635 0.000000
-0.565853 1.970842 0.000000
-0.505221 1.800959 0.000000
-0.448564 1.635529 0.000000
-0.395505 1.474112 0.000000
-0.345698 1.316289 0.000000
-0.298823 1.161663 0.000000
-0.254588 1.009860 0.000000
-0.212731 0.860530 0.000000
-0.173015 0.713348 0.000000
-0.135229 0.568013 0.000000
-0.099188 0.424250 0.000000
-0.064728 0.281809 0.000000
-0.031706 0.140460 0.000000
0.000000 0.000000 0.000000
-0.000000 -0.000000 0.000000
0.000000 0.000000 0.000000
-0.000000 0.000000 0.000000
0.000000 0.000000 0.000000
0.000000 0.000000 0.000000
0.000000 0.000000 0.000000
0.000000 0.000000 0.000000
0.000000 0.000000 0.000000
0.000000 0.000000 0.000000
0.000000 0.000000 0.000000
0.000000 0.000000 0.000000
0.000000 0.000000 0.000000
0.000000 0.000000 0.000000
0.000000 0.000000 0.000000
0.000000 0.000000 0.000000
0.000000 0.000000 0.000000
0.000000 0.000000 0.000000
0.000000 0.000000 0.000000
0.000000 0.000000 0.000000
0.000000 0.000000 0.000000
0.000000 0.000000 0.000000
0.000000 0.000000 0.000000
-0.000000 -0.000000 0.000000
0.000000 0.093733 0.000000
0.000001 0.093731 0.000000
0.000001 0.093729 0.000000
0.000001 0.093727 0.000000
0.000001 0.093724 0.000000
0.000001 0.093721 0.000000
0.000001 0.093718 0.000000
0.000001 0.093715 0.000000
0.000001 0.093711 0.000000
0.000001 0.093708 0.000000
0.000001 0.093704 0.000000
0.000001 0.093700 0.000000
0.000001 0.093695 0.000000
0.000001 0.093691 0.000000
0.000001 0.093686 0.000000
0.000001 0.093682 0.000000
0.000001 0.093677 0.000000
0.000001 0.093672 0.000000
0.000001 0.093667 0.000000
0.000001 0.093662 0.000000
0.000001 0.093658 0.000000
0.000001 0.093653 0.000000
0.000001 0.093648 0.000000
0.000001 0.093644 0.000000
0.000002 0.187941 0.000000
0.000002 0.187938 0.000000
0.000003 0.187933 0.000000
0.000003 0.187929 0.000000
0.000003 0.187923 0.000000
0.000003 0.187917 0.000000
0.000004 0.187911 0.000000
0.000004 0.187904 0.000000
0.000004 0.187897 0.000000
0.000004 0.187889 0.000000
0.000005 0.187881 0.000000
0.000005 0.187873 0.000000
0.000005 0.187864 0.000000
0.000005 0.187855 0.000000
0.000005 0.187846 0.000000
0.000005 0.187837 0.000000
0.000005 0.187827 0.000000
0.000005 0.187818 0.000000
0.000005 0.187808 0.000000
0.000005 0.187799 0.000000
0.000005 0.187789 0.000000
0.000005 0.187780 0.000000
0.000005 0.187771 0.000000
-0.032110 0.233686 0.000000
0.000005 0.282765 0.000000
0.000005 0.282759 0.000000
0.000006 0.282753 0.000000
0.000007 0.282745 0.000000
0.000007 0.282737 0.000000
0.000008 0.282728 0.000000
0.000009 0.282718 0.000000
0.000009 0.282708 0.000000
0.000010 0.282697 0.000000
0.000010 0.282685 0.000000
0.000011 0.282673 0.000000
0.000011 0.282660 0.000000
0.000011 0.282647 0.000000
0.000011 0.282634 0.000000
0.000012 0.282620 0.000000
0.000012 0.282606 0.000000
0.000012 0.282592 0.000000
0.000012 0.282578 0.000000
0.000012 0.282563 0.000000
0.000012 0.282549 0.000000
0.000012 0.282535 0.000000
0.000012 0.282521 0.000000
-0.032522 0.327512 0.000000
-0.065554 0.374700 0.000000
0.000009 0.378353 0.000000
0.000010 0.378345 0.000000
0.000011 0.378336 0.000000
0.000013 0.378326 0.000000
0.000014 0.378315 0.000000
0.000015 0.378303 0.000000
0.000016 0.378290 0.000000
0.000017 0.378276 0.000000
0.000018 0.378261 0.000000
0.000018 0.378245 0.000000
0.000019 0.378229 0.000000
0.000020 0.378212 0.000000
0.000020 0.378194 0.000000
0.000021 0.378176 0.000000
0.000021 0.378158 0.000000
0.000021 0.378139 0.000000
0.000022 0.378121 0.000000
0.000022 0.378102 0.000000
0.000022 0.378083 0.000000
0.000021 0.378064 0.000000
0.000021 0.378045 0.000000
-0.032943 0.422087 0.000000
-0.066400 0.468317 0.000000
-0.100456 0.516896 0.000000
0.000015 0.474865 0.000000
0.000016 0.474855 0.000000
0.000018 0.474843 0.000000
0.000020 0.474830 0.000000
0.000022 0.474816 0.000000
0.000024 0.474800 0.000000
0.000025 0.474784 0.000000
0.000027 0.474766 0.000000
0.000028 0.474747 0.000000
0.000029 0.474728 0.000000
0.000030 0.474707 0.000000
0.000031 0.474686 0.000000
0.000032 0.474664 0.000000
0.000033 0.474641 0.000000
0.000033 0.474618 0.000000
0.000034 0.474595 0.000000
0.000034 0.474572 0.000000
0.000034 0.474548 0.000000
0.000034 0.474525 0.000000
0.000033 0.474502 0.000000
-0.033372 0.517570 0.000000
-0.067265 0.562817 0.000000
-0.101754 0.610399 0.000000
-0.136960 0.660504 0.000000
0.000022 0.572469 0.000000
0.000025 0.572456 0.000000
0.000028 0.572442 0.000000
0.000030 0.572426 0.000000
0.000033 0.572409 0.000000
0.000035 0.572390 0.000000
0.000037 0.572370 0.000000
0.000039 0.572349 0.000000
0.000041 0.572326 0.000000
0.000043 0.572302 0.000000
0.000044 0.572277 0.000000
0.000046 0.572252 0.000000
0.000047 0.572225 0.000000
0.000048 0.572198 0.000000
0.000048 0.572171 0.000000
0.000049 0.572143 0.000000
0.000049 0.572115 0.000000
0.000049 0.572087 0.000000
0.000049 0.572060 0.000000
-0.033810 0.614128 0.000000
-0.068151 0.658366 0.000000
-0.103085 0.704927 0.000000
-0.138733 0.753995 0.000000
-0.175231 0.805781 0.000000
0.000031 0.671346 0.000000
0.000035 0.671331 0.000000
0.000039 0.671314 0.000000
0.000042 0.671296 0.000000
0.000046 0.671275 0.000000
0.000049 0.671253 0.000000
0.000052 0.671229 0.000000
0.000054 0.671204 0.000000
0.000057 0.671177 0.000000
0.000059 0.671149 0.000000
0.000061 0.671121 0.000000
0.000063 0.671091 0.000000
0.000064 0.671060 0.000000
0.000065 0.671028 0.000000
0.000066 0.670997 0.000000
0.000067 0.670965 0.000000
0.000067 0.670932 0.000000
0.000067 0.670900 0.000000
-0.034257 0.711941 0.000000
-0.069059 0.755143 0.000000
-0.104448 0.800657 0.000000
-0.140551 0.848661 0.000000
-0.177504 0.899363 0.000000
-0.215460 0.953004 0.000000
0.000043 0.771690 0.000000
0.000048 0.771673 0.000000
0.000053 0.771653 0.000000
0.000057 0.771631 0.000000
0.000061 0.771608 0.000000
0.000065 0.771582 0.000000
0.000069 0.771555 0.000000
0.000073 0.771526 0.000000
0.000076 0.771495 0.000000
0.000079 0.771463 0.000000
0.000081 0.771430 0.000000
0.000083 0.771396 0.000000
0.000085 0.771361 0.000000
0.000086 0.771325 0.000000
0.000087 0.771289 0.000000
0.000088 0.771253 0.000000
0.000087 0.771216 0.000000
-0.034715 0.811202 0.000000
-0.069989 0.853341 0.000000
-0.105847 0.897779 0.000000
-0.142415 0.944692 0.000000
-0.179834 0.994283 0.000000
-0.218259 1.046789 0.000000
-0.257860 1.102481 0.000000
0.000057 0.873709 0.000000
0.000063 0.873689 0.000000
0.000069 0.873666 0.000000
0.000074 0.873642 0.000000
0.000080 0.873615 0.000000
0.000085 0.873586 0.000000
0.000089 0.873555 0.000000
0.000094 0.873522 0.000000
0.000098 0.873487 0.000000
0.000101 0.873452 0.000000
0.000104 0.873414 0.000000
0.000106 0.873376 0.000000
0.000108 0.873337 0.000000
0.000110 0.873297 0.000000
0.000111 0.873257 0.000000
0.000111 0.873216 0.000000
-0.035184 0.912117 0.000000
-0.070943 0.953163 0.000000
-0.107281 0.996498 0.000000
-0.144328 1.042292 0.000000
-0.182225 1.090744 0.000000
-0.221130 1.142087 0.000000
-0.261217 1.196585 0.000000
-0.302672 1.254540 0.000000
0.000073 0.977626 0.000000
0.000080 0.977604 0.000000
0.000088 0.977579 0.000000
0.000095 0.977551 0.000000
0.000101 0.977521 0.000000
0.000107 0.977488 0.000000
0.000113 0.977454 0.000000
0.000118 0.977417 0.000000
0.000122 0.977379 0.000000
0.000126 0.977339 0.000000
0.000130 0.977297 0.000000
0.000133 0.977255 0.000000
0.000135 0.977212 0.000000
0.000137 0.977168 0.000000
0.000137 0.977124 0.000000
-0.035664 1.014909 0.000000
-0.071922 1.054833 0.000000
-0.108754 1.097034 0.000000
-0.146291 1.141680 0.000000
-0.184679 1.188964 0.000000
-0.224077 1.239113 0.000000
-0.264660 1.292389 0.000000
-0.306620 1.349087 0.000000
-0.350162 1.409538 0.000000
0.000092 1.083685 0.000000
0.000101 1.083660 0.000000
0.000109 1.083632 0.000000
0.000118 1.083601 0.000000
0.000125 1.083568 0.000000
0.000133 1.083532 0.000000
0.000139 1.083494 0.000000
0.000145 1.083453 0.000000
0.000150 1.083411 0.000000
0.000155 1.083367 0.000000
0.000159 1.083322 0.000000
0.000162 1.083276 0.000000
0.000164 1.083229 0.000000
0.000166 1.083181 0.000000
-0.036156 1.119819 0.000000
-0.072927 1.158589 0.000000
-0.110267 1.199626 0.000000
-0.148308 1.243092 0.000000
-0.187198 1.289178 0.000000
-0.227101 1.338104 0.000000
-0.268194 1.390127 0.000000
-0.310672 1.445536 0.000000
-0.354741 1.504658 0.000000
-0.400627 1.567855 0.000000
0.000113 1.192148 0.000000
0.000124 1.192120 0.000000
0.000134 1.192090 0.000000
0.000144 1.192056 0.000000
0.000153 1.192019 0.000000
0.000161 1.191980 0.000000
0.000169 1.191938 0.000000
0.000175 1.191895 0.000000
0.000181 1.191849 0.000000
0.000187 1.191801 0.000000
0.000191 1.191752 0.000000
0.000194 1.191702 0.000000
0.000197 1.191651 0.000000
-0.036662 1.227108 0.000000
-0.073960 1.264692 0.000000
-0.111821 1.304533 0.000000
-0.150379 1.346788 0.000000
-0.189786 1.391643 0.000000
-0.230207 1.439315 0.000000
-0.271823 1.490054 0.000000
-0.314831 1.544142 0.000000
-0.359441 1.601902 0.000000
-0.405881 1.663689 0.000000
-0.454391 1.729897 0.000000
0.000138 1.303302 0.000000
0.000150 1.303272 0.000000
0.000162 1.303239 0.000000
0.000173 1.303202 0.000000
0.000183 1.303162 0.000000
0.000193 1.303120 0.000000
0.000201 1.303075 0.000000
0.000209 1.303027 0.000000
0.000216 1.302978 0.000000
0.000221 1.302926 0.000000
0.000226 1.302874 0.000000
0.000230 1.302820 0.000000
-0.037181 1.337061 0.000000
-0.075023 1.373424 0.000000
-0.113419 1.412035 0.000000
-0.152509 1.453047 0.000000
-0.192446 1.496639 0.000000
-0.233399 1.543024 0.000000
-0.275551 1.592445 0.000000
-0.319102 1.645180 0.000000
-0.364266 1.701543 0.000000
-0.411275 1.761886 0.000000
-0.460370 1.826594 0.000000
-0.511808 1.896093 0.000000
0.000165 1.417461 0.000000
0.000179 1.417428 0.000000
0.000193 1.417392 0.000000
0.000205 1.417352 0.000000
0.000217 1.417309 0.000000
0.000228 1.417264 0.000000
0.000237 1.417215 0.000000
0.000246 1.417164 0.000000
0.000253 1.417111 0.000000
0.000259 1.417057 0.000000
0.000264 1.417001 0.000000
-0.037716 1.449989 0.000000
-0.076116 1.485096 0.000000
-0.115064 1.522443 0.000000
-0.154700 1.562176 0.000000
-0.195182 1.604471 0.000000
-0.236680 1.649535 0.000000
-0.279381 1.697604 0.000000
-0.323489 1.748951 0.000000
-0.369222 1.803883 0.000000
-0.416813 1.862745 0.000000
-0.466508 1.925917 0.000000
-0.518568 1.993816 0.000000
-0.573260 2.066894 0.000000
0.000196 1.534966 0.000000
0.000212 1.534931 0.000000
0.000227 1.534892 0.000000
0.000241 1.534850 0.000000
0.000254 1.534804 0.000000
0.000266 1.534755 0.000000
0.000276 1.534703 0.000000
0.000286 1.534649 0.000000
0.000293 1.534593 0.000000
0.000300 1.534535 0.000000
-0.038266 1.566233 0.000000
-0.077242 1.600046 0.000000
-0.116757 1.636092 0.000000
-0.156955 1.674511 0.000000
-0.197996 1.715474 0.000000
-0.240054 1.759181 0.000000
-0.283320 1.805863 0.000000
-0.327999 1.855786 0.000000
-0.374314 1.909251 0.000000
-0.422502 1.966595 0.000000
-0.472812 2.028192 0.000000
-0.525508 2.094452 0.000000
-0.580863 2.165819 0.000000
-0.639155 2.242770 0.000000
0.000230 1.656196 0.000000
0.000248 1.656158 0.000000
0.000265 1.656116 0.000000
0.000280 1.656071 0.000000
0.000294 1.656022 0.000000
0.000307 1.655970 0.000000
0.000319 1.655916 0.000000
0.000329 1.655858 0.000000
0.000337 1.655799 0.000000
-0.038834 1.686166 0.000000
-0.078402 1.718647 0.000000
-0.118501 1.753354 0.000000
-0.159277 1.790422 0.000000
-0.200893 1.830015 0.000000
-0.243526 1.872328 0.000000
-0.287371 1.917586 0.000000
-0.332637 1.966048 0.000000
-0.379549 2.018008 0.000000
-0.428348 2.073797 0.000000
-0.479289 2.133780 0.000000
-0.532637 2.198359 0.000000
-0.588670 2.267973 0.000000
-0.647671 2.343090 0.000000
-0.709928 2.424210 0.000000
0.000267 1.781563 0.000000
0.000287 1.781522 0.000000
0.000305 1.781478 0.000000
0.000322 1.781430 0.000000
0.000338 1.781379 0.000000
0.000352 1.781324 0.000000
0.000364 1.781266 0.000000
0.000374 1.781206 0.000000
-0.039420 1.810201 0.000000
-0.079600 1.841309 0.000000
-0.120299 1.874637 0.000000
-0.161670 1.910314 0.000000
-0.203877 1.948500 0.000000
-0.247101 1.989381 0.000000
-0.291541 2.033176 0.000000
-0.337408 2.080139 0.000000
-0.384933 2.130555 0.000000
-0.434359 2.184747 0.000000
-0.485945 2.243075 0.000000
-0.539962 2.305932 0.000000
-0.596690 2.373749 0.000000
-0.656418 2.446987 0.000000
-0.719435 2.526138 0.000000
-0.786033 2.611719 0.000000
0.000308 1.911524 0.000000
0.000330 1.911481 0.000000
0.000350 1.911435 0.000000
0.000368 1.911384 0.000000
0.000385 1.911330 0.000000
0.000400 1.911272 0.000000
0.000412 1.911212 0.000000
-0.040026 1.938790 0.000000
-0.080835 1.968483 0.000000
-0.122154 2.000390 0.000000
-0.164137 2.034637 0.000000
-0.206951 2.071374 0.000000
-0.250783 2.110783 0.000000
-0.295834 2.153076 0.000000
-0.342319 2.198499 0.000000
-0.390472 2.247330 0.000000
-0.440542 2.299885 0.000000
-0.492790 2.356515 0.000000
-0.547493 2.417607 0.000000
-0.604933 2.483581 0.000000
-0.665404 2.554893 0.000000
-0.729201 2.632026 0.000000
-0.796618 2.715489 0.000000
-0.867943 2.805813 0.000000
0.000352 2.046582 0.000000
0.000376 2.046537 0.000000
0.000397 2.046488 0.000000
0.000417 2.046435 0.000000
0.000435 2.046379 0.000000
0.000450 2.046319 0.000000
-0.040654 2.072434 0.000000
-0.082112 2.100667 0.000000
-0.124069 2.131110 0.000000
-0.166682 2.163883 0.000000
-0.210122 2.199130 0.000000
-0.254579 2.237026 0.000000
-0.300256 2.277775 0.000000
-0.347376 2.321616 0.000000
-0.396174 2.368820 0.000000
-0.446904 2.419695 0.000000
-0.499832 2.474583 0.000000
-0.555237 2.533863 0.000000
-0.613408 2.597949 0.000000
-0.674641 2.667285 0.000000
-0.739237 2.742349 0.000000
-0.807493 2.823642 0.000000
-0.879701 2.911686 0.000000
-0.956142 3.007015 0.000000
0.000400 2.187292 0.000000
0.000425 2.187246 0.000000
0.000448 2.187195 0.000000
0.000469 2.187139 0.000000
0.000488 2.187080 0.000000
-0.041303 2.211684 0.000000
-0.083433 2.238410 0.000000
-0.126048 2.267345 0.000000
-0.169309 2.298600 0.000000
-0.213394 2.332313 0.000000
-0.258493 2.368652 0.000000
-0.304815 2.407814 0.000000
-0.352586 2.450029 0.000000
-0.402047 2.495562 0.000000
-0.453454 2.544712 0.000000
-0.507079 2.597812 0.000000
-0.563205 2.655234 0.000000
-0.622125 2.717381 0.000000
-0.684140 2.784692 0.000000
-0.749554 2.857634 0.000000
-0.818670 2.936701 0.000000
-0.891784 3.022407 0.000000
-0.969179 3.115281 0.000000
-1.051120 3.215856 0.000000
0.000451 2.334267 0.000000
0.000478 2.334218 0.000000
0.000503 2.334165 0.000000
0.000525 2.334108 0.000000
-0.041977 2.357150 0.000000
-0.084799 2.382320 0.000000
-0.128093 2.409697 0.000000
-0.172024 2.439387 0.000000
-0.216771 2.471521 0.000000
-0.262531 2.506258 0.000000
-0.309517 2.543787 0.000000
-0.357957 2.584332 0.000000
-0.408098 2.628148 0.000000
-0.460201 2.675526 0.000000
-0.514541 2.726791 0.000000
-0.571406 2.782304 0.000000
-0.631095 2.842463 0.000000
-0.693912 2.907696 0.000000
-0.760166 2.978461 0.000000
-0.830164 3.055245 0.000000
-0.904206 3.138554 0.000000
-0.982579 3.228909 0.000000
-1.065552 3.326838 0.000000
-1.153365 3.432864 0.000000
0.000506 2.488180 0.000000
0.000534 2.488129 0.000000
0.000560 2.488075 0.000000
-0.042677 2.509501 0.000000
-0.086215 2.533063 0.000000
-0.130210 2.558834 0.000000
-0.174830 2.586910 0.000000
-0.220260 2.617416 0.000000
-0.266700 2.650503 0.000000
-0.314368 2.686353 0.000000
-0.363497 2.725180 0.000000
-0.414337 2.767232 0.000000
-0.467154 2.812789 0.000000
-0.522228 2.862168 0.000000
-0.579852 2.915724 0.000000
-0.640329 2.973841 0.000000
-0.703969 3.036940 0.000000
-0.771085 3.105472 0.000000
-0.841988 3.179914 0.000000
-0.916982 3.260764 0.000000
-0.996359 3.348535 0.000000
-1.080389 3.443749 0.000000
-1.169318 3.546925 0.000000
-1.263353 3.658569 0.000000
0.000564 2.649773 0.000000
0.000594 2.649721 0.000000
-0.043404 2.669475 0.000000
-0.087682 2.691375 0.000000
-0.132401 2.715486 0.000000
-0.177732 2.741899 0.000000
-0.223866 2.770727 0.000000
-0.271007 2.802115 0.000000
-0.319377 2.836236 0.000000
-0.369214 2.873296 0.000000
-0.420772 2.913532 0.000000
-0.474323 2.957218 0.000000
-0.530151 3.004662 0.000000
-0.588555 3.056205 0.000000
-0.649841 3.112226 0.000000
-0.714326 3.173135 0.000000
-0.782325 3.239375 0.000000
-0.854156 3.311412 0.000000
-0.930128 3.389738 0.000000
-1.010534 3.474858 0.000000
-1.095650 3.567287 0.000000
-1.185723 3.667539 0.000000
-1.280965 3.776113 0.000000
-1.381543 3.893490 0.000000
0.000625 2.819861 0.000000
-0.044160 2.837883 0.000000
-0.089204 2.858064 0.000000
-0.134670 2.880461 0.000000
-0.180737 2.905155 0.000000
-0.227597 2.932253 0.000000
-0.275460 2.961890 0.000000
-0.324552 2.994231 0.000000
-0.375117 3.029472 0.000000
-0.427414 3.067842 0.000000
-0.481719 3.109604 0.000000
-0.538322 3.155057 0.000000
-0.597526 3.204533 0.000000
-0.659643 3.258401 0.000000
-0.724994 3.317061 0.000000
-0.793901 3.380946 0.000000
-0.866686 3.450515 0.000000
-0.943660 3.526250 0.000000
-1.025123 3.608649 0.000000
-1.111353 3.698219 0.000000
-1.202601 3.795469 0.000000
-1.299081 3.900894 0.000000