# vtk DataFile Version 2.0
cantilever_tri6_mix
ASCII
DATASET POLYDATA
POINTS 1000 float
0.000000 -6.000000 0.000000
48.000000 -6.000000 0.000000
48.000000 6.000000 0.000000
0.000000 6.000000 0.000000
0.750000 -6.000000 0.000000
1.500000 -6.000000 0.000000
2.250000 -6.000000 0.000000
3.000000 -6.000000 0.000000
3.750000 -6.000000 0.000000
4.500000 -6.000000 0.000000
5.250000 -6.000000 0.000000
6.000000 -6.000000 0.000000
6.750000 -6.000000 0.000000
7.500000 -6.000000 0.000000
8.250000 -6.000000 0.000000
9.000000 -6.000000 0.000000
9.750000 -6.000000 0.000000
10.500000 -6.000000 0.000000
11.250000 -6.000000 0.000000
12.000000 -6.000000 0.000000
12.750000 -6.000000 0.000000
13.500000 -6.000000 0.000000
14.250000 -6.000000 0.000000
15.000000 -6.000000 0.000000
15.750000 -6.000000 0.000000
16.500000 -6.000000 0.000000
17.250000 -6.000000 0.000000
18.000000 -6.000000 0.000000
18.750000 -6.000000 0.000000
19.500000 -6.000000 0.000000
20.250000 -6.000000 0.000000
21.000000 -6.000000 0.000000
21.750000 -6.000000 0.000000
22.500000 -6.000000 0.000000
23.250000 -6.000000 0.000000
24.000000 -6.000000 0.000000
24.750000 -6.000000 0.000000
25.500000 -6.000000 0.000000
26.250000 -6.000000 0.000000
27.000000 -6.000000 0.000000
27.750000 -6.000000 0.000000
28.500000 -6.000000 0.000000
29.250000 -6.000000 0.000000
30.000000 -6.000000 0.000000
30.750000 -6.000000 0.000000
31.500000 -6.000000 0.000000
32.250000 -6.000000 0.000000
33.000000 -6.000000 0.000000
33.750000 -6.000000 0.000000
34.500000 -6.000000 0.000000
35.250000 -6.000000 0.000000
36.000000 -6.000000 0.000000
36.750000 -6.000000 0.000000
37.500000 -6.000000 0.000000
38.250000 -6.000000 0.000000
39.000000 -6.000000 0.000000
39.750000 -6.000000 0.000000
40.500000 -6.000000 0.000000
41.250000 -6.000000 0.000000
42.000000 -6.000000 0.000000
42.750000 -6.000000 0.000000
43.500000 -6.000000 0.000000
44.250000 -6.000000 0.000000
45.000000 -6.000000 0.000000
45.750000 -6.000000 0.000000
46.500000 -6.000000 0.000000
47.250000 -6.000000 0.000000
48.000000 -5.250000 0.000000
48.000000 -4.500000 0.000000
48.000000 -3.750000 0.000000
48.000000 -3.000000 0.000000
48.000000 -2.250000 0.000000
48.000000 -1.500000 0.000000
48.000000 -0.750000 0.000000
48.000000 -0.000000 0.000000
48.000000 0.750000 0.000000
48.000000 1.500000 0.000000
48.000000 2.250000 0.000000
48.000000 3.000000 0.000000
48.000000 3.750000 0.000000
48.000000 4.500000 0.000000
48.000000 5.250000 0.000000
47.250000 6.000000 0.000000
46.500000 6.000000 0.000000
45.750000 6.000000 0.000000
45.000000 6.000000 0.000000
44.250000 6.000000 0.000000
43.500000 6.000000 0.000000
42.750000 6.000000 0.000000
42.000000 6.000000 0.000000
41.250000 6.000000 0.000000
40.500000 6.000000 0.000000
39.750000 6.000000 0.000000
39.000000 6.000000 0.000000
38.250000 6.000000 0.000000
37.500000 6.000000 0.000000
36.750000 6.000000 0.000000
36.000000 6.000000 0.000000
35.250000 6.000000 0.000000
34.500000 6.000000 0.000000
33.750000 6.000000 0.000000
33.000000 6.000000 0.000000
32.250000 6.000000 0.000000
31.500000 6.000000 0.000000
30.750000 6.000000 0.000000
30.000000 6.000000 0.000000
29.250000 6.000000 0.000000
28.500000 6.000000 0.000000
27.750000 6.000000 0.000000
27.000000 6.000000 0.000000
26.250000 6.000000 0.000000
25.500000 6.000000 0.000000
24.750000 6.000000 0.000000
24.000000 6.000000 0.000000
23.250000 6.000000 0.000000
22.500000 6.000000 0.000000
21.750000 6.000000 0.000000
21.000000 6.000000 0.000000
20.250000 6.000000 0.000000
19.500000 6.000000 0.000000
18.750000 6.000000 0.000000
18.000000 6.000000 0.000000
17.250000 6.000000 0.000000
16.500000 6.000000 0.000000
15.750000 6.000000 0.000000
15.000000 6.000000 0.000000
14.250000 6.000000 0.000000
13.500000 6.000000 0.000000
12.750000 6.000000 0.000000
12.000000 6.000000 0.000000
11.250000 6.000000 0.000000
10.500000 6.000000 0.000000
9.750000 6.000000 0.000000
9.000000 6.000000 0.000000
8.250000 6.000000 0.000000
7.500000 6.000000 0.000000
6.750000 6.000000 0.000000
6.000000 6.000000 0.000000
5.250000 6.000000 0.000000
4.500000 6.000000 0.000000
3.750000 6.000000 0.000000
3.000000 6.000000 0.000000
2.250000 6.000000 0.000000
1.500000 6.000000 0.000000
0.750000 6.000000 0.000000
0.000000 5.250000 0.000000
0.000000 4.500000 0.000000
0.000000 3.750000 0.000000
0.000000 3.000000 0.000000
0.000000 2.250000 0.000000
0.000000 1.500000 0.000000
0.000000 0.750000 0.000000
0.000000 0.000000 0.000000
0.000000 -0.750000 0.000000
0.000000 -1.500000 0.000000
0.000000 -2.250000 0.000000
0.000000 -3.000000 0.000000
0.000000 -3.750000 0.000000
0.000000 -4.500000 0.000000
0.000000 -5.250000 0.000000
44.976689 -3.706080 0.000000
21.278258 -1.425708 0.000000
1.488192 -1.072433 0.000000
38.770804 -1.466537 0.000000
24.898891 2.816617 0.000000
27.529776 4.409944 0.000000
21.559568 -2.147660 0.000000
3.901436 2.119598 0.000000
5.577031 2.878560 0.000000
22.835523 -1.201744 0.000000
6.880187 5.228398 0.000000
35.307971 0.727141 0.000000
23.233201 -1.961451 0.000000
20.382677 2.202704 0.000000
13.882668 2.145660 0.000000
33.723347 1.306275 0.000000
2.330171 1.287301 0.000000
18.628637 1.772173 0.000000
9.201793 0.162829 0.000000
46.411172 5.157507 0.000000
4.751280 2.906967 0.000000
35.594917 4.526962 0.000000
9.876458 -4.472705 0.000000
14.114327 3.709189 0.000000
38.713126 3.959994 0.000000
27.158883 0.415842 0.000000
0.800877 -5.217272 0.000000
24.263780 -0.688938 0.000000
21.905346 -2.873416 0.000000
11.227184 3.435926 0.000000
33.959564 -2.873798 0.000000
7.495601 -4.485717 0.000000
4.625225 -3.668167 0.000000
3.397987 5.206537 0.000000
29.318217 1.406383 0.000000
4.954518 -2.572282 0.000000
25.011220 -2.086322 0.000000
27.463386 1.973858 0.000000
3.116531 0.415645 0.000000
36.110521 5.224724 0.000000
19.052425 -2.125197 0.000000
46.480354 1.247020 0.000000
2.325455 4.416754 0.000000
15.596663 -1.365748 0.000000
31.511116 2.206755 0.000000
4.649892 -0.152410 0.000000
25.346238 5.208469 0.000000
45.683775 3.724825 0.000000
3.310266 -2.066611 0.000000
3.957929 -0.174932 0.000000
4.629532 3.681691 0.000000
16.917403 -0.521071 0.000000
22.751344 2.087433 0.000000
46.516796 -3.495740 0.000000
13.666849 -2.979103 0.000000
24.398290 -2.992855 0.000000
20.508678 -5.206341 0.000000
45.004044 -2.950751 0.000000
17.442194 -2.089000 0.000000
31.690831 -4.462754 0.000000
9.196611 -3.120783 0.000000
9.639990 -3.710852 0.000000
11.765461 3.902421 0.000000
8.194037 -0.110646 0.000000
1.561152 3.654166 0.000000
34.745795 0.189854 0.000000
47.236812 -0.127962 0.000000
12.941893 -3.717938 0.000000
45.127724 3.215495 0.000000
47.181487 2.678159 0.000000
34.618549 -3.715490 0.000000
30.597013 -2.555931 0.000000
15.179287 -0.699433 0.000000
17.917152 2.534681 0.000000
39.569572 -1.540646 0.000000
19.576345 -1.129703 0.000000
31.157464 3.016641 0.000000
18.182471 0.948632 0.000000
11.368248 -3.770608 0.000000
41.065093 2.031791 0.000000
43.484924 -1.382405 0.000000
12.691262 4.340859 0.000000
40.291611 4.495727 0.000000
43.548419 3.913491 0.000000
43.105500 4.571842 0.000000
27.827864 -5.211568 0.000000
12.680910 -0.000148 0.000000
37.619919 1.403214 0.000000
27.036944 -5.202164 0.000000
3.826643 -4.466043 0.000000
31.640673 3.719630 0.000000
9.249378 2.012760 0.000000
14.642666 -1.294647 0.000000
45.848671 -1.096985 0.000000
35.914912 -2.960583 0.000000
40.178368 3.255084 0.000000
15.882402 0.706112 0.000000
5.400828 3.669318 0.000000
27.270329 -0.393586 0.000000
33.370556 -0.245822 0.000000
7.763069 3.774518 0.000000
35.087715 -4.447736 0.000000
11.011582 1.685200 0.000000
7.616376 0.506986 0.000000
8.195980 -2.960338 0.000000
32.857170 -1.774351 0.000000
41.262434 4.471711 0.000000
39.549517 -2.234684 0.000000
21.433451 2.923940 0.000000
13.434399 -2.285389 0.000000
23.520990 -0.917927 0.000000
17.420874 0.244012 0.000000
40.753083 3.814438 0.000000
14.475312 1.432705 0.000000
40.613048 2.639964 0.000000
27.721725 1.191817 0.000000
42.656155 1.379511 0.000000
28.651857 0.804751 0.000000
19.842180 0.558034 0.000000
26.647678 -3.582861 0.000000
11.938653 -2.818384 0.000000
0.786872 1.359140 0.000000
19.784968 -1.869765 0.000000
7.312420 4.479463 0.000000
21.959367 1.979065 0.000000
16.045727 -4.448127 0.000000
38.721825 1.271724 0.000000
26.698394 -2.795665 0.000000
20.090526 3.771374 0.000000
13.549511 4.450323 0.000000
20.342454 -3.222601 0.000000
9.022315 -5.184622 0.000000
8.543210 1.556447 0.000000
19.356567 -0.398706 0.000000
5.166901 5.229144 0.000000
10.942770 -1.540299 0.000000
28.374476 4.490812 0.000000
29.451032 -5.187327 0.000000
19.040490 -3.672217 0.000000
38.279099 -3.768094 0.000000
32.317692 -3.739666 0.000000
8.595884 -3.649331 0.000000
10.509090 1.110052 0.000000
3.974464 -2.187759 0.000000
43.783736 1.346726 0.000000
6.029389 5.215443 0.000000
11.608009 0.065105 0.000000
35.552477 -5.208310 0.000000
37.490123 4.422260 0.000000
36.021119 -1.725147 0.000000
10.419936 -0.942753 0.000000
11.934712 4.580735 0.000000
18.410357 3.809799 0.000000
18.244399 -2.113241 0.000000
6.891007 0.408623 0.000000
31.036885 0.732066 0.000000
2.335700 3.633945 0.000000
21.440703 -5.265454 0.000000
42.141020 1.951260 0.000000
24.545832 1.213970 0.000000
16.126362 1.434172 0.000000
42.220462 3.086961 0.000000
29.012680 -2.667693 0.000000
28.775555 -0.054217 0.000000
35.980824 2.186527 0.000000
9.782062 -5.228520 0.000000
25.771621 4.410320 0.000000
8.239396 -1.979049 0.000000
15.872493 -2.158300 0.000000
47.252243 -3.053459 0.000000
38.951830 -0.403872 0.000000
24.993681 -0.415157 0.000000
15.278006 4.491655 0.000000
14.497867 -4.404598 0.000000
9.858198 -0.364554 0.000000
16.106411 -0.569653 0.000000
14.409845 4.488003 0.000000
42.656904 5.261189 0.000000
3.142795 -2.869183 0.000000
23.593072 -4.405544 0.000000
12.163649 0.609282 0.000000
3.104466 3.629812 0.000000
6.241140 2.061104 0.000000
20.091455 -0.168155 0.000000
10.488567 5.201881 0.000000
25.562439 0.405666 0.000000
39.130529 3.383394 0.000000
13.026393 5.175065 0.000000
5.738089 -1.906365 0.000000
40.947514 0.948787 0.000000
31.623337 5.230648 0.000000
[...]
POINT_DATA 1000
SCALARS P float 1
LOOKUP_TABLE default
1009.165517
-9.981711
3.266217
-999.892004
947.845047
974.558467
937.724446
965.388895
881.404463
960.493159
821.499709
943.409553
768.553593
958.368307
666.476047
971.470952
663.801237
857.061604
713.129414
758.383326
727.123406
732.620064
702.687110
681.048467
647.176276
687.351993
624.660980
595.601391
671.908387
539.913940
597.642649
552.245395
557.235742
528.016249
475.755728
536.313643
420.076530
558.930946
357.969132
551.903101
301.900754
490.000137
322.387255
419.134822
327.750124
371.249790
304.469444
314.997870
292.710539
270.292628
263.685085
257.660216
216.600950
230.783419
197.883410
171.413107
186.665453
148.531163
144.707420
112.409233
137.740629
44.322424
105.812161
26.829708
75.875015
-9.649414
34.771599
16.524648
-6.539040
1.895940
21.968742
-19.259441
2.233011
8.065811
-5.050659
-1.294346
6.250624
-0.714666
9.884537
-8.157345
8.210922
-1.968048
-15.854262
-39.296667
-28.401373
-68.191105
-93.390625
-93.184345
-96.003838
-145.577268
-144.097138
-133.155514
-192.422185
-205.857531
-189.037475
-227.411550
-234.021589
-243.342673
-276.875536
-286.034533
-296.149991
-312.479638
-329.561393
-337.490319
-379.456553
-362.524590
-398.770320
-413.841288
-417.714020
-433.086070
-471.873055
-462.750757
-496.805518
-502.482689
-520.477805
-537.160494
-536.487768
-574.117995
-572.450224
-595.666219
-635.548186
-597.484130
-663.042739
-660.371031
-684.704293
-679.687990
-700.029270
-736.123708
-717.588681
-747.800189
-786.261003
-784.526745
-763.125807
-841.279322
-818.343929
-833.548178
-880.878129
-872.289230
-874.052296
-943.862703
-894.891883
-970.584430
-927.590556
-997.545666
-968.853519
-870.414230
-752.445095
-578.556984
-588.304440
-223.894899
-411.890485
19.073053
-108.935431
217.642403
209.650581
404.001227
485.006362
638.284799
751.506357
874.402187
-121.483345
288.411420
306.574708
37.473446
-478.717507
-426.249790
862.419763
-198.847707
-705.170524
84.907335
-480.467767
12.398390
935.471067
-97.628362
-312.631780
126.013023
259.521931
-43.435767
-165.331077
-11.783774
-140.977553
-64.496821
790.873981
-577.119379
-338.867840
-142.449089
922.302782
6.393584
634.786272
-315.603579
-14.413175
597.788724
772.725618
-640.676178
11.863605
516.075787
372.213409
-216.882351
166.398156
-316.551318
-124.527208
95.140121
-707.635556
363.969513
-266.781107
486.986032
-372.638376
-128.369436
568.476435
-106.358695
-629.630681
-181.310334
21.917555
87.151210
492.500794
80.713786
489.307478
280.396702
38.028867
236.922619
616.376567
148.017880
-519.955269
82.555188
-265.284294
-13.003915
31.331433
316.286632
21.299134
-29.424067
172.823033
47.665142
-300.309809
-441.016658
23.560228
122.395036
35.229479
-132.832230
108.611390
10.701861
227.325955
-629.319344
-162.109960
-121.713620
14.836039
753.813378
470.557746
17.375761
-7.408957
889.374654
-214.819720
-422.108420
-97.008563
-118.704444
25.748511
-448.040149
-78.048253
-495.276823
-177.373549
285.381968
-543.959157
17.420015
-271.377297
26.677888
19.185617
220.733456
-19.810791
190.160323
-248.504325
618.085997
-115.773988
113.643918
-165.907656
-591.163593
143.763565
269.714684
-185.516363
-388.421188
-27.856752
-167.074994
263.064059
533.519191
597.007593
-713.736923
-412.539914
940.771473
-280.060010
563.847204
-262.221426
-356.409480
836.619068
237.273806
-112.552220
-34.982839
-587.652358
-387.320288
-150.688530
562.179085
556.216505
90.766788
270.654094
676.711895
-88.621647
-90.106468
12.336876
-991.140171
-273.230269
174.059606
-152.765627
305.751988
97.138682
-407.277489
-315.584041
274.775990
-126.872030
-109.909794
-736.139881
447.701811
-3.065471
-58.882773
-466.078512
-129.770235
19.332986
34.434507
-62.734804
983.809688
-391.127063
1135.408013
-270.923419
-74.610091
73.173781
-56.434418
-320.102319
740.958520
-179.906059
324.428098
-681.122321
-88.777711
156.760479
203.752441
-23.221691
-503.655344
-444.810862
209.699728
-431.394869
-200.863708
165.741009
-952.999448
-11.523632
-126.282805
-304.631788
524.705894
-6.046456
375.530524
-20.788932
672.285372
178.047822
153.236013
92.952495
-301.910563
-615.386924
252.028173
-409.501966
-201.847302
-49.983965
-414.599592
139.648121
221.702727
241.310935
-309.900790
-460.230081
219.078318
285.739846
-20.822301
-70.766336
-624.458947
-223.632399
-64.592817
135.090003
-37.796033
32.579319
-652.601594
-279.694312
188.432847
-978.303621
-62.417726
23.810657
-96.326108
-105.102387
230.508840
657.343789
442.155767
326.051660
426.787577
613.850156
21.686464
-178.256770
595.827497
-83.044528
263.065951
968.354396
129.386597
-835.278430
646.696779
1058.846976
362.019789
-86.849374
626.926824
-5.668458
141.862711
-581.770042
-450.180486
-417.946472
-216.285333
-247.132606
-391.806287
360.760781
293.396028
385.044916
44.821051
-491.618959
-243.276168
30.570691
719.728442
105.307098
-14.617756
-144.523936
40.187097
-332.412913
-464.842687
733.342746
31.296662
1104.794972
25.409465
-505.817326
-267.253401
730.877098
507.018216
-56.476476
484.070028
1197.985295
-556.016250
-41.883126
-108.198332
-48.550680
-749.715764
53.786636
587.387416
-81.038777
602.039619
-116.289122
166.850164
-149.360545
-82.381871
-10.733850
-132.960265
-96.883431
-173.194321
-94.671896
-150.657175
154.004483
-655.789820
-67.076610
-346.320939
-930.845374
-246.702182
-69.740098
0.420975
122.171047
129.944985
-67.247278
443.458028
152.678582
-702.342411
229.170469
801.717214
-179.519387
442.196864
77.419091
-142.289965
517.578590
318.478982
553.562965
102.988170
-23.603065
-117.790200
-236.445844
-56.786856
72.178349
500.431988
-60.684687
-39.479881
270.669852
-837.987278
741.484819
77.908065
-293.052498
-359.466552
-279.072047
-126.728219
22.565918
-6.842741
-284.119795
-10.159290
-118.661745
135.710374
-181.834952
33.895800
725.144444
244.131207
490.006124
123.862201
-321.199914
-475.100795
22.113428
37.612916
-789.126632
158.411432
-460.164976
-177.782685
-17.253240
-179.032134
472.191693
-0.552719
21.966052
-858.214333
117.585486
48.625224
140.423488
189.242448
-1.026583
909.110061
-15.585344
-167.556004
-436.886648
-321.824949
388.013443
170.552088
591.943489
806.898812
-98.702223
-186.867661
603.637059
161.063574
343.368289
-411.388463
-304.897865
164.455392
439.717001
-112.705582
209.013344
153.921905
-224.376831
132.137358
-235.151093
273.697588
-514.743832
513.579725
-238.031274
813.306589
187.660091
5.245063
-262.277831
-516.726477
-106.141835
117.219057
104.236451
307.550636
230.707678
606.481702
-1.869063
-280.720918
-24.612760
168.364471
26.837581
-465.374114
158.174979
-454.975208
185.528972
75.263300
343.546854
-94.553351
175.470414
141.866330
753.184670
328.884577
233.118838
3.876209
32.946290
-107.489623
-347.701571
-264.185425
214.459755
369.627048
135.369442
386.734255
200.706195
590.520543
-85.112733
928.781056
-877.095402
828.741716
-106.223334
155.266927
-399.529977
73.860515
-701.287943
-245.812730
-595.486718
799.291421
280.620917
79.622033
-499.589113
187.597454
237.127166
-224.140233
-267.814015
-43.062591
-519.615327
175.964230
-33.168618
96.892085
398.354335
-596.733795
-29.094862
-102.518976
10.568204
-137.966041
-111.405325
536.598393
103.646146
587.927416
-177.112123
-452.760819
-444.723185
-826.287125
263.159783
232.761117
3.453560
297.471150
44.383122
-225.844775
-314.508400
182.410964
-1.302519
-34.987977
-197.779092
324.790872
8.345207
-272.254544
-537.144659
-385.191248
7.864835
-91.297610
91.784559
-283.533311
7.154091
-183.479620
508.164766
138.504691
-953.636168
-537.122930
104.805954
-912.809396
-146.513622
-114.733218
-315.741575
15.955277
889.722534
-59.602261
641.413504
65.248981
-95.109928
-275.524898
234.632328
208.986087
338.922573
94.143879
-308.424908
-112.082124
211.217305
-507.629131
565.376934
327.238785
-279.577257
664.311662
160.478053
-429.365394
63.746150
-378.605868
1216.168770
-389.414247
19.435963
602.642618
-0.770732
593.917778
327.565279
400.905270
-198.145320
-201.961874
-279.166825
249.349063
-102.567815
95.882326
691.766249
135.271035
-165.519474
-17.084779
-282.436260
552.175324
-180.840963
-458.109184
-257.088846
43.655313
98.080223
-69.529169
-149.900060
-180.790158
-281.658670
121.986324
12.363979
74.765237
-23.453180
-73.706153
101.754707
-45.435873
-173.549949
-244.985450
-237.826892
-563.785557
845.748870
-415.013808
366.249347
311.954260
780.710361
-164.845059
-198.731382
-186.180097
-823.629983
-122.581913
-23.570754
-47.785728
411.030325
246.364142
-602.533384
-27.330099
-22.969247
-54.762611
-263.983201
-479.980485
-589.423726
-399.184541
348.663421
-429.598249
234.719385
-15.809529
159.410675
-77.707439
16.095620
-116.551490
82.585452
-1.870063
-39.876842
-78.804441
-112.206977
-320.427044
47.220522
218.611668
27.285303
-368.773584
71.853471
-321.738302
-107.039032
325.577015
-226.274549
-744.856163
57.304453
347.524506
-93.604578
-110.583724
674.741213
-379.479155
344.876395
-120.262647
143.164010
588.185862
3.873641
153.410038
-502.627179
95.296182
-30.014734
179.552608
145.258928
63.108617
-6.927639
46.824191
32.528995
365.985914
-554.955900
190.653468
-167.094482
-143.901795
-58.582983
511.120835
922.322987
-478.696631
81.672970
174.694778
240.023764
459.359018
74.709996
-410.141883
583.502886
34.376101
-11.169176
935.412389
-572.747874
-107.791444
-235.985173
-259.466285
110.287018
216.934930
-365.604707
-401.103741
482.118295
70.081821
-805.012110
605.864466
150.853144
315.788548
-274.240921
-327.080756
135.018634
-69.700173
-749.363032
485.235434
-34.046718
-92.469749
594.040561
73.448864
64.818998
117.237812
614.914365
-443.688492
472.171978
129.900328
-574.424306
184.264588
-18.162356
-254.611776
90.512648
703.059949
573.624197
69.427438
-94.122199
99.371248
433.806612
-36.273286
-31.034859
35.752365
295.566403
191.262893
492.672488
248.685174
650.506176
547.055314
-296.825027
-330.180708
-896.584617
-168.816834
-237.589519
-249.114202
73.493188
-940.768527
64.113693
-372.931318
-332.062458
-122.104308
-49.655478
-321.805665
133.893428
-921.456756
-71.878138
-307.553998
356.784008
450.659972
157.796162
62.181058
36.179759
249.636883
178.905156
-14.489003
-156.465550
-206.519435
-990.759209
-49.867280
575.376333
86.633202
-803.780921
-400.125397
144.228803
-55.784738
-838.613464
114.554795
-409.212942
632.163217
-203.806293
432.198748
-152.996229
75.472109
44.472009
578.621297
87.548580
692.892612
-54.788275
-598.206946
-786.487035
108.447641
-438.923923
-236.354147
-219.290186
164.541679
-27.195516
209.067328
-165.678893
1113.016460
788.195099
368.356705
-48.251678
159.717940
147.144650
531.207297
281.443665
62.032540
-31.850363
399.265246
-248.155157
-373.469050
-312.525475
-129.175310
322.985537
175.492781
121.320759
-10.185505
-14.855958
-295.375066
-523.746372
-94.432175
-183.073389
-241.140055
-44.484624
62.516334
-22.604306
-122.719786
388.333665
30.710508
-273.076964
-256.066050
-403.340596
412.643405
674.965271
-29.126759
-4.852163
151.558729
572.684284
-304.559097
-42.536893
-118.454154
-316.389729
-418.557679
-474.371057
-386.134839
454.707647
-20.324191
-83.412557
122.556631
737.268571
-1062.009338
-451.908929
467.519753
52.912418
-98.678134
-175.195972
-467.466317
-188.339756
-4.622172
173.723272
59.099985
-768.810138
280.252186
211.922659
-349.108061
-146.168433
-244.038476
-286.629155
-406.998052
-8.747636
-36.234380
-690.868312
93.131093
