# vtk DataFile Version 2.0
cantilever_quad8_mix
ASCII
DATASET POLYDATA
POINTS 220 float
0.000000 -6.000000 0.000000
48.000000 -6.000000 0.000000
48.000000 6.000000 0.000000
0.000000 6.000000 0.000000
1.500000 -6.000000 0.000000
3.000000 -6.000000 0.000000
4.500000 -6.000000 0.000000
6.000000 -6.000000 0.000000
7.500000 -6.000000 0.000000
9.000000 -6.000000 0.000000
10.500000 -6.000000 0.000000
12.000000 -6.000000 0.000000
13.500000 -6.000000 0.000000
15.000000 -6.000000 0.000000
16.500000 -6.000000 0.000000
18.000000 -6.000000 0.000000
19.500000 -6.000000 0.000000
21.000000 -6.000000 0.000000
22.500000 -6.000000 0.000000
24.000000 -6.000000 0.000000
25.500000 -6.000000 0.000000
27.000000 -6.000000 0.000000
28.500000 -6.000000 0.000000
30.000000 -6.000000 0.000000
31.500000 -6.000000 0.000000
33.000000 -6.000000 0.000000
34.500000 -6.000000 0.000000
36.000000 -6.000000 0.000000
37.500000 -6.000000 0.000000
39.000000 -6.000000 0.000000
40.500000 -6.000000 0.000000
42.000000 -6.000000 0.000000
43.500000 -6.000000 0.000000
45.000000 -6.000000 0.000000
46.500000 -6.000000 0.000000
48.000000 -4.500000 0.000000
48.000000 -3.000000 0.000000
48.000000 -1.500000 0.000000
48.000000 -0.000000 0.000000
48.000000 1.500000 0.000000
48.000000 3.000000 0.000000
48.000000 4.500000 0.000000
46.500000 6.000000 0.000000
45.000000 6.000000 0.000000
43.500000 6.000000 0.000000
42.000000 6.000000 0.000000
40.500000 6.000000 0.000000
39.000000 6.000000 0.000000
37.500000 6.000000 0.000000
36.000000 6.000000 0.000000
34.500000 6.000000 0.000000
33.000000 6.000000 0.000000
31.500000 6.000000 0.000000
30.000000 6.000000 0.000000
28.500000 6.000000 0.000000
27.000000 6.000000 0.000000
25.500000 6.000000 0.000000
24.000000 6.000000 0.000000
22.500000 6.000000 0.000000
21.000000 6.000000 0.000000
19.500000 6.000000 0.000000
18.000000 6.000000 0.000000
16.500000 6.000000 0.000000
15.000000 6.000000 0.000000
13.500000 6.000000 0.000000
12.000000 6.000000 0.000000
10.500000 6.000000 0.000000
9.000000 6.000000 0.000000
7.500000 6.000000 0.000000
6.000000 6.000000 0.000000
4.500000 6.000000 0.000000
3.000000 6.000000 0.000000
1.500000 6.000000 0.000000
0.000000 4.500000 0.000000
0.000000 3.000000 0.000000
0.000000 1.500000 0.000000
0.000000 0.000000 0.000000
0.000000 -1.500000 0.000000
0.000000 -3.000000 0.000000
0.000000 -4.500000 0.000000
18.270926 -0.757536 0.000000
25.793814 -0.694370 0.000000
28.483543 2.676432 0.000000
11.176523 2.507799 0.000000
12.829515 -0.826782 0.000000
45.621401 2.744029 0.000000
32.910646 -0.737156 0.000000
12.862798 0.831860 0.000000
23.841017 -4.194988 0.000000
27.147461 -2.420739 0.000000
35.906601 0.825072 0.000000
10.987563 -0.812527 0.000000
20.116074 -0.829646 0.000000
22.166406 2.519627 0.000000
38.030535 4.178465 0.000000
7.284963 -0.790732 0.000000
32.770888 2.587684 0.000000
37.031497 -4.231761 0.000000
16.546390 0.861460 0.000000
16.766789 4.212043 0.000000
24.189438 2.604581 0.000000
23.797846 0.872767 0.000000
14.760154 2.527473 0.000000
5.454409 -4.242554 0.000000
9.139707 -0.793272 0.000000
34.479734 -2.478729 0.000000
2.010556 3.950599 0.000000
5.391620 2.571479 0.000000
43.406033 2.522297 0.000000
10.987094 -2.470618 0.000000
44.457494 -4.121081 0.000000
40.894309 -4.157242 0.000000
4.102892 4.184946 0.000000
12.867417 -2.478676 0.000000
22.013147 0.828576 0.000000
41.196987 2.429573 0.000000
5.422015 -2.532362 0.000000
7.263451 -2.453813 0.000000
5.503639 0.977293 0.000000
42.344587 0.858996 0.000000
9.302847 2.518645 0.000000
42.451012 -2.404700 0.000000
20.864299 -2.516166 0.000000
38.011090 0.682678 0.000000
16.297607 -4.183920 0.000000
22.020081 -0.856913 0.000000
16.731060 -2.467914 0.000000
10.858594 -4.176981 0.000000
29.193320 -0.809062 0.000000
25.156651 -2.474930 0.000000
29.045867 -2.496237 0.000000
32.690285 -2.440982 0.000000
33.040790 -4.181090 0.000000
12.986263 2.511912 0.000000
16.470296 -0.811499 0.000000
36.943612 -0.924306 0.000000
1.850097 -2.185572 0.000000
27.475434 -4.182232 0.000000
35.967954 4.182937 0.000000
25.210276 4.261077 0.000000
42.714799 -4.160395 0.000000
20.229222 2.515472 0.000000
41.431942 -0.788082 0.000000
38.995850 -4.158241 0.000000
43.669939 -0.666583 0.000000
6.273619 4.252515 0.000000
21.916542 -4.191192 0.000000
12.678154 -4.178106 0.000000
20.923027 4.218970 0.000000
3.611921 -1.797536 0.000000
7.358485 2.583029 0.000000
25.648017 1.023851 0.000000
23.032951 4.244311 0.000000
36.313770 -2.610135 0.000000
46.185901 -2.315433 0.000000
44.450210 0.992200 0.000000
31.712281 4.217960 0.000000
45.911767 -0.513775 0.000000
7.327460 0.879751 0.000000
12.688559 4.207316 0.000000
31.174571 -4.198204 0.000000
30.607487 2.571472 0.000000
14.739530 4.210189 0.000000
3.531844 2.261775 0.000000
10.609711 4.215407 0.000000
26.320830 2.718851 0.000000
42.133948 4.165016 0.000000
1.868985 -0.204036 0.000000
18.103320 -4.204917 0.000000
9.122116 -2.454992 0.000000
18.739516 -2.467245 0.000000
14.499210 -4.181614 0.000000
39.085316 2.387557 0.000000
40.376753 -2.426088 0.000000
33.863048 4.213604 0.000000
34.975990 -4.230029 0.000000
46.182836 -4.131846 0.000000
40.088541 4.167604 0.000000
14.659495 -0.825456 0.000000
44.168577 4.224876 0.000000
34.904488 2.514746 0.000000
27.404946 4.267364 0.000000
31.682712 0.977321 0.000000
46.187200 4.200218 0.000000
44.402158 -2.321576 0.000000
37.014949 2.440563 0.000000
18.354353 2.526379 0.000000
11.009864 0.841987 0.000000
14.707050 0.840876 0.000000
30.901588 -2.458568 0.000000
20.228010 0.845749 0.000000
38.287979 -2.477569 0.000000
29.595635 4.248224 0.000000
18.399710 0.882983 0.000000
14.774818 -2.476466 0.000000
7.271010 -4.170246 0.000000
33.791921 0.924814 0.000000
29.321110 -4.189892 0.000000
27.577712 1.075628 0.000000
23.945596 -0.798981 0.000000
39.169675 -0.866657 0.000000
9.058813 -4.163600 0.000000
40.185536 0.722224 0.000000
30.991540 -0.708602 0.000000
1.847489 -4.089901 0.000000
3.652126 0.299829 0.000000
27.544673 -0.622907 0.000000
25.682078 -4.197759 0.000000
9.156343 0.867747 0.000000
19.958082 -4.194318 0.000000
46.323605 1.319310 0.000000
3.617344 -3.911459 0.000000
18.837342 4.213415 0.000000
29.565944 0.952199 0.000000
23.044462 -2.511155 0.000000
8.487869 4.239352 0.000000
5.450158 -0.757671 0.000000
16.542007 2.529572 0.000000
34.905834 -0.808733 0.000000
1.800783 1.802626 0.000000
POLYGONS 358 1432
3 0 4 79
3 79 4 204
3 204 4 5
3 6 211 5
3 103 6 7
3 103 211 6
3 7 8 195
3 8 9 201
3 195 201 117
3 195 8 201
3 10 127 201
3 127 10 11
3 9 10 201
3 201 127 169
3 7 195 103
3 103 195 116
3 136 78 204
3 204 78 79
3 211 204 5
3 136 204 211
3 77 136 167
3 136 77 78
3 205 167 149
3 149 167 136
3 136 211 149
3 77 167 76
3 211 116 149
3 116 195 117
3 201 169 117
3 104 169 91
3 103 116 211
3 216 117 95
3 117 216 116
3 216 95 158
3 95 117 169
3 169 104 95
3 149 216 205
3 169 109 91
3 116 216 149
3 127 109 169
3 104 158 95
3 127 147 109
3 147 11 12
3 12 13 171
3 171 124 194
3 171 13 124
3 124 14 168
3 13 14 124
3 168 14 15
3 147 12 171
3 16 17 209
3 17 18 146
3 124 168 126
3 168 16 209
3 146 88 214
3 209 17 146
3 18 88 146
3 170 168 209
3 18 19 88
3 16 168 15
3 122 209 146
3 171 113 147
3 171 194 113
3 113 194 178
3 84 109 113
3 187 91 84
3 91 109 84
3 178 87 84
3 134 178 194
3 84 113 178
3 134 188 178
3 194 126 134
3 109 147 113
3 124 126 194
3 168 170 126
3 170 209 122
3 125 122 214
3 80 170 92
3 170 80 126
3 80 92 193
3 92 170 122
3 122 125 92
3 80 98 134
3 125 199 101
3 126 80 134
3 146 214 122
3 104 91 187
3 125 214 199
3 147 127 11
3 125 190 92
3 76 167 75
3 104 187 208
3 167 219 75
3 106 74 219
3 219 74 75
3 163 219 205
3 163 106 219
3 205 118 163
3 158 118 216
3 104 208 158
3 208 187 120
3 158 208 150
3 107 118 150
3 118 107 163
3 145 107 150
3 150 118 158
3 208 120 150
3 112 163 107
3 120 83 164
3 118 205 216
3 167 205 219
3 215 150 120
3 72 73 106
3 106 73 74
3 106 163 112
3 71 106 112
3 72 3 73
3 70 71 112
3 72 106 71
3 112 145 70
3 145 112 107
3 150 215 145
3 215 164 67
3 145 215 68
3 68 69 145
3 66 67 164
3 68 215 67
3 66 164 65
3 145 69 70
3 120 164 215
3 83 120 187
3 133 87 188
3 84 87 187
3 178 188 87
3 102 188 98
3 159 83 133
3 133 83 87
3 102 217 162
3 102 133 188
3 98 217 102
3 162 133 102
3 98 186 217
3 87 83 187
3 141 190 114
3 134 98 188
3 190 125 114
3 93 114 101
3 186 193 141
3 193 186 98
3 186 141 212
3 141 193 190
3 114 93 141
3 148 141 93
3 93 100 152
3 193 98 80
3 190 193 92
3 217 186 99
3 133 162 159
3 217 99 162
3 162 99 62
3 159 162 64
3 64 65 159
3 62 63 162
3 64 162 63
3 99 61 62
3 65 164 159
3 60 212 148
3 148 212 141
3 152 148 93
3 58 148 152
3 60 61 212
3 58 59 148
3 60 148 59
3 152 57 58
3 212 61 99
3 186 212 99
3 93 101 100
3 159 164 83
3 125 101 114
3 214 88 129
3 20 207 88
3 20 21 207
3 21 137 207
3 137 21 22
3 137 22 197
3 207 137 89
3 207 129 88
3 23 24 160
3 160 24 132
3 197 160 189
3 197 23 160
3 24 25 132
3 175 26 27
3 25 26 132
3 175 132 26
3 23 197 22
3 137 197 130
3 137 130 89
3 89 129 207
3 89 130 206
3 129 89 81
3 199 81 151
3 199 129 81
3 198 206 128
3 206 81 89
3 128 206 130
3 81 206 151
3 130 189 128
3 199 214 129
3 189 160 131
3 189 130 197
3 105 132 175
3 131 132 105
3 203 131 86
3 131 203 189
3 196 86 218
3 86 131 105
3 105 218 86
3 213 128 203
3 218 105 153
3 189 203 128
3 160 132 131
3 86 182 203
3 105 175 153
3 19 20 88
3 27 28 97
3 28 29 143
3 97 143 191
3 97 28 143
3 30 111 143
3 111 30 31
3 29 30 143
3 143 111 173
3 97 153 175
3 31 32 140
3 140 32 110
3 110 32 33
3 34 176 33
3 1 35 34
3 35 176 34
3 31 140 111
3 111 140 121
3 143 173 191
3 173 111 121
3 191 173 200
3 153 191 135
3 123 135 200
3 135 191 200
3 142 121 144
3 142 200 173
3 121 142 173
3 142 202 200
3 191 153 97
3 153 135 218
3 154 110 176
3 176 110 33
3 36 176 35
3 154 176 36
3 157 144 184
3 144 121 184
3 157 184 154
3 37 154 36
3 184 110 154
3 157 154 37
3 121 140 184
3 140 110 184
3 135 90 218
3 97 175 27
3 142 144 119
3 206 198 151
3 182 86 196
3 198 213 82
3 151 198 165
3 151 165 100
3 165 198 82
3 181 165 82
3 139 100 165
3 213 161 82
3 100 101 151
3 203 182 213
3 196 218 90
3 196 90 180
3 182 196 96
3 156 161 96
3 161 182 96
3 96 180 174
3 185 138 180
3 196 180 96
3 82 161 192
3 180 90 185
3 182 161 213
3 128 213 198
3 138 174 180
3 165 181 139
3 82 192 181
3 181 192 54
3 139 181 55
3 56 57 139
3 54 55 181
3 56 139 55
3 192 53 54
3 57 152 139
3 52 53 156
3 156 53 192
3 174 156 96
3 51 156 174
3 51 52 156
3 50 174 138
3 51 174 50
3 138 49 50
3 161 156 192
3 138 48 49
3 152 100 139
3 172 123 202
3 123 200 202
3 202 142 119
3 115 202 119
3 94 185 172
3 172 185 123
3 115 177 172
3 108 115 119
3 172 202 115
3 108 166 115
3 119 155 108
3 123 185 90
3 210 155 157
3 155 119 144
3 38 157 37
3 210 157 38
3 85 210 40
3 210 85 155
3 39 40 210
3 210 38 39
3 85 179 108
3 155 85 108
3 90 135 123
3 183 85 40
3 47 94 177
3 177 94 172
3 166 177 115
3 46 177 166
3 47 48 94
3 45 46 166
3 47 177 46
3 166 44 45
3 48 138 94
3 43 179 183
3 179 166 108
3 41 183 40
3 42 183 41
3 43 44 179
3 2 42 41
3 43 183 42
3 179 44 166
3 85 183 179
3 94 138 185
3 144 157 155
3 101 199 151
POINT_DATA 220
SCALARS P float 1
LOOKUP_TABLE default
-2210.423079
371.314103
-471.457656
2054.966328
79.085940
1285.361422
498.847535
1226.092923
681.948377
1023.487853
629.349102
912.446170
671.961719
737.918615
660.754897
670.845983
585.091885
598.347946
538.287052
523.477935
475.484690
459.092892
413.501430
388.585353
355.346310
322.031597
289.335311
258.483956
225.762690
196.303582
153.321825
129.531431
125.914198
47.072408
3.039239
-333.554939
217.696984
-92.113177
-3.287680
144.764800
-193.021220
403.987046
58.972613
-40.998272
-123.257158
-132.674495
-157.767409
-188.327745
-233.024345
-252.970865
-291.647961
-322.652796
-352.161854
-390.961122
-413.317797
-458.817636
-475.143873
-528.512470
-527.477749
-608.477075
-581.314046
-681.396114
-636.788593
-759.831790
-669.601180
-900.548253
-640.907595
-1042.252458
-597.358958
-1352.417708
-408.790158
-1243.167406
67.952260
-4496.551834
1754.734936
-1097.470679
-46.226495
1274.196253
-2010.457472
4769.163255
84.921592
55.043612
-186.644805
-353.820625
122.684875
45.671793
40.321830
-128.205444
364.969131
182.535147
-34.219111
59.214556
82.013420
-232.348659
-145.937118
-25.486842
-141.308829
165.438295
-95.012471
-465.542583
-222.105342
-75.623839
-296.628289
653.839336
206.644919
119.067503
-597.899861
-331.046778
-59.644199
337.194020
47.128200
113.157714
-801.414602
320.927842
-78.075501
-58.447385
337.215550
441.626615
-294.227822
-3.707802
-294.608050
54.680918
246.404129
-23.771928
459.223804
79.488129
288.389953
578.647067
56.224205
201.429076
167.113346
133.755318
224.989188
-309.675039
86.638969
34.104460
545.077255
305.613648
-180.848166
-346.709115
65.992528
-250.979514
13.546086
132.773344
5.992199
-575.527791
387.315395
490.406562
-408.917649
163.497058
-446.827558
-81.531361
-380.469632
110.431490
-20.245280
-23.660691
-245.946529
27.536459
15.739639
-510.725852
250.598931
-160.308656
-514.815495
-266.731995
-578.780302
-211.651422
-75.991035
3.212166
453.063985
290.553289
252.342544
531.283369
-73.168706
63.389910
-213.245751
197.277275
65.316612
-125.731996
96.633118
-51.156785
-116.589556
-314.722804
-55.971737
-120.188576
30.206247
-98.558900
-266.698437
-56.657259
-94.414314
151.991490
-81.892101
86.298928
-280.036883
-97.184273
279.474993
553.865290
-48.617175
282.797362
-78.331392
69.296632
32.447455
598.414063
-25.748106
41.890495
525.639829
6.506990
44.891616
335.604753
-224.916422
425.073703
-47.807847
717.480573
-440.754140
-63.444566
224.300996
-608.150974
233.457733
-289.054237
38.875925
-449.425559
