# vtk DataFile Version 2.0
cantilever_quad4_mix
ASCII
DATASET POLYDATA
POINTS 1500 float
0.000000 -6.000000 0.000000
48.000000 -6.000000 0.000000
48.000000 6.000000 0.000000
0.000000 6.000000 0.000000
0.631579 -6.000000 0.000000
1.263158 -6.000000 0.000000
1.894737 -6.000000 0.000000
2.526316 -6.000000 0.000000
3.157895 -6.000000 0.000000
3.789474 -6.000000 0.000000
4.421053 -6.000000 0.000000
5.052632 -6.000000 0.000000
5.684211 -6.000000 0.000000
6.315789 -6.000000 0.000000
6.947368 -6.000000 0.000000
7.578947 -6.000000 0.000000
8.210526 -6.000000 0.000000
8.842105 -6.000000 0.000000
9.473684 -6.000000 0.000000
10.105263 -6.000000 0.000000
10.736842 -6.000000 0.000000
11.368421 -6.000000 0.000000
12.000000 -6.000000 0.000000
12.631579 -6.000000 0.000000
13.263158 -6.000000 0.000000
13.894737 -6.000000 0.000000
14.526316 -6.000000 0.000000
15.157895 -6.000000 0.000000
15.789474 -6.000000 0.000000
16.421053 -6.000000 0.000000
17.052632 -6.000000 0.000000
17.684211 -6.000000 0.000000
18.315789 -6.000000 0.000000
18.947368 -6.000000 0.000000
19.578947 -6.000000 0.000000
20.210526 -6.000000 0.000000
20.842105 -6.000000 0.000000
21.473684 -6.000000 0.000000
22.105263 -6.000000 0.000000
22.736842 -6.000000 0.000000
23.368421 -6.000000 0.000000
24.000000 -6.000000 0.000000
24.631579 -6.000000 0.000000
25.263158 -6.000000 0.000000
25.894737 -6.000000 0.000000
26.526316 -6.000000 0.000000
27.157895 -6.000000 0.000000
27.789474 -6.000000 0.000000
28.421053 -6.000000 0.000000
29.052632 -6.000000 0.000000
29.684211 -6.000000 0.000000
30.315789 -6.000000 0.000000
30.947368 -6.000000 0.000000
31.578947 -6.000000 0.000000
32.210526 -6.000000 0.000000
32.842105 -6.000000 0.000000
33.473684 -6.000000 0.000000
34.105263 -6.000000 0.000000
34.736842 -6.000000 0.000000
35.368421 -6.000000 0.000000
36.000000 -6.000000 0.000000
36.631579 -6.000000 0.000000
37.263158 -6.000000 0.000000
37.894737 -6.000000 0.000000
38.526316 -6.000000 0.000000
39.157895 -6.000000 0.000000
39.789474 -6.000000 0.000000
40.421053 -6.000000 0.000000
41.052632 -6.000000 0.000000
41.684211 -6.000000 0.000000
42.315789 -6.000000 0.000000
42.947368 -6.000000 0.000000
43.578947 -6.000000 0.000000
44.210526 -6.000000 0.000000
44.842105 -6.000000 0.000000
45.473684 -6.000000 0.000000
46.105263 -6.000000 0.000000
46.736842 -6.000000 0.000000
47.368421 -6.000000 0.000000
48.000000 -5.368421 0.000000
48.000000 -4.736842 0.000000
48.000000 -4.105263 0.000000
48.000000 -3.473684 0.000000
48.000000 -2.842105 0.000000
48.000000 -2.210526 0.000000
48.000000 -1.578947 0.000000
48.000000 -0.947368 0.000000
48.000000 -0.315789 0.000000
48.000000 0.315789 0.000000
48.000000 0.947368 0.000000
48.000000 1.578947 0.000000
48.000000 2.210526 0.000000
48.000000 2.842105 0.000000
48.000000 3.473684 0.000000
48.000000 4.105263 0.000000
48.000000 4.736842 0.000000
48.000000 5.368421 0.000000
47.368421 6.000000 0.000000
46.736842 6.000000 0.000000
46.105263 6.000000 0.000000
45.473684 6.000000 0.000000
44.842105 6.000000 0.000000
44.210526 6.000000 0.000000
43.578947 6.000000 0.000000
42.947368 6.000000 0.000000
42.315789 6.000000 0.000000
41.684211 6.000000 0.000000
41.052632 6.000000 0.000000
40.421053 6.000000 0.000000
39.789474 6.000000 0.000000
39.157895 6.000000 0.000000
38.526316 6.000000 0.000000
37.894737 6.000000 0.000000
37.263158 6.000000 0.000000
36.631579 6.000000 0.000000
36.000000 6.000000 0.000000
35.368421 6.000000 0.000000
34.736842 6.000000 0.000000
34.105263 6.000000 0.000000
33.473684 6.000000 0.000000
32.842105 6.000000 0.000000
32.210526 6.000000 0.000000
31.578947 6.000000 0.000000
30.947368 6.000000 0.000000
30.315789 6.000000 0.000000
29.684211 6.000000 0.000000
29.052632 6.000000 0.000000
28.421053 6.000000 0.000000
27.789474 6.000000 0.000000
27.157895 6.000000 0.000000
26.526316 6.000000 0.000000
25.894737 6.000000 0.000000
25.263158 6.000000 0.000000
24.631579 6.000000 0.000000
24.000000 6.000000 0.000000
23.368421 6.000000 0.000000
22.736842 6.000000 0.000000
22.105263 6.000000 0.000000
21.473684 6.000000 0.000000
20.842105 6.000000 0.000000
20.210526 6.000000 0.000000
19.578947 6.000000 0.000000
18.947368 6.000000 0.000000
18.315789 6.000000 0.000000
17.684211 6.000000 0.000000
17.052632 6.000000 0.000000
16.421053 6.000000 0.000000
15.789474 6.000000 0.000000
15.157895 6.000000 0.000000
14.526316 6.000000 0.000000
13.894737 6.000000 0.000000
13.263158 6.000000 0.000000
12.631579 6.000000 0.000000
12.000000 6.000000 0.000000
11.368421 6.000000 0.000000
10.736842 6.000000 0.000000
10.105263 6.000000 0.000000
9.473684 6.000000 0.000000
8.842105 6.000000 0.000000
8.210526 6.000000 0.000000
7.578947 6.000000 0.000000
6.947368 6.000000 0.000000
6.315789 6.000000 0.000000
5.684211 6.000000 0.000000
5.052632 6.000000 0.000000
4.421053 6.000000 0.000000
3.789474 6.000000 0.000000
3.157895 6.000000 0.000000
2.526316 6.000000 0.000000
1.894737 6.000000 0.000000
1.263158 6.000000 0.000000
0.631579 6.000000 0.000000
0.000000 5.368421 0.000000
0.000000 4.736842 0.000000
0.000000 4.105263 0.000000
0.000000 3.473684 0.000000
0.000000 2.842105 0.000000
0.000000 2.210526 0.000000
0.000000 1.578947 0.000000
0.000000 0.947368 0.000000
0.000000 0.315789 0.000000
0.000000 -0.315789 0.000000
0.000000 -0.947368 0.000000
0.000000 -1.578947 0.000000
0.000000 -2.210526 0.000000
0.000000 -2.842105 0.000000
0.000000 -3.473684 0.000000
0.000000 -4.105263 0.000000
0.000000 -4.736842 0.000000
0.000000 -5.368421 0.000000
20.700682 -1.696987 0.000000
12.964235 1.608587 0.000000
39.074258 2.398064 0.000000
24.392564 -2.463262 0.000000
15.347421 4.200068 0.000000
46.728815 3.434659 0.000000
4.872869 2.251845 0.000000
26.006255 0.943235 0.000000
20.157315 -4.154177 0.000000
14.177254 1.051656 0.000000
1.241370 4.510656 0.000000
12.871616 4.748381 0.000000
43.067124 1.671892 0.000000
1.204977 0.724162 0.000000
25.688531 -0.099217 0.000000
41.865246 -2.454814 0.000000
41.037374 2.570216 0.000000
35.582911 -4.158228 0.000000
10.264059 3.071971 0.000000
44.489026 -0.368128 0.000000
19.441504 -5.382441 0.000000
14.890070 3.490847 0.000000
15.446932 1.657022 0.000000
41.160707 1.947916 0.000000
2.748526 -2.750570 0.000000
26.209635 -2.079908 0.000000
34.895566 2.222507 0.000000
33.070388 -3.539916 0.000000
13.630700 2.825165 0.000000
14.449495 -4.128748 0.000000
44.276138 2.254267 0.000000
7.046162 -1.589428 0.000000
23.033888 2.354092 0.000000
8.526596 -2.405282 0.000000
15.164453 -4.135726 0.000000
42.394813 1.038204 0.000000
9.217064 1.453896 0.000000
8.399601 -1.808136 0.000000
14.813568 1.387309 0.000000
4.194293 1.005955 0.000000
17.672702 -3.511774 0.000000
41.626530 -0.953207 0.000000
22.667270 -4.796608 0.000000
21.159197 2.996074 0.000000
33.448711 -2.941881 0.000000
13.757028 -2.862255 0.000000
42.166625 0.316318 0.000000
14.668019 4.138537 0.000000
1.221171 -4.170932 0.000000
23.237405 -0.701954 0.000000
13.059325 -2.899974 0.000000
20.672678 -2.321479 0.000000
25.647762 -2.381532 0.000000
3.433827 -2.931656 0.000000
12.334473 -1.557288 0.000000
42.123562 4.777240 0.000000
29.374827 1.019300 0.000000
27.030168 5.398426 0.000000
27.966831 1.243790 0.000000
42.456126 1.680707 0.000000
20.027318 -2.911597 0.000000
7.966716 4.222788 0.000000
14.073968 -0.356684 0.000000
43.216328 4.140001 0.000000
37.957432 -0.584941 0.000000
46.758180 2.706999 0.000000
31.558976 -2.449324 0.000000
21.229528 -3.580108 0.000000
1.790757 1.854400 0.000000
19.719180 4.204222 0.000000
35.562130 -2.980357 0.000000
1.869082 -4.761861 0.000000
44.347681 -2.987915 0.000000
14.847718 2.088047 0.000000
28.510290 -3.557903 0.000000
11.609303 -2.189973 0.000000
38.491598 -3.032886 0.000000
1.262655 -5.394655 0.000000
25.657296 -3.638260 0.000000
31.888741 -4.315569 0.000000
46.186897 0.878350 0.000000
9.351104 -0.453451 0.000000
2.430314 2.920116 0.000000
16.937272 -2.248834 0.000000
32.498425 0.040256 0.000000
19.491253 -1.002221 0.000000
35.182190 1.708219 0.000000
3.035978 2.550109 0.000000
47.332793 -5.263160 0.000000
30.008201 -0.233391 0.000000
0.619369 4.069312 0.000000
38.719470 -0.916939 0.000000
30.424008 -1.948277 0.000000
38.588959 -4.240052 0.000000
18.241641 -1.643653 0.000000
23.183327 -1.892952 0.000000
16.256682 -3.528234 0.000000
29.709609 -4.311241 0.000000
35.730221 -1.838433 0.000000
9.680088 -1.675684 0.000000
9.867042 -0.021457 0.000000
19.469882 -1.640709 0.000000
28.846372 -1.021552 0.000000
39.540524 -1.367866 0.000000
43.395381 -3.536128 0.000000
29.733662 1.516275 0.000000
0.616204 1.099071 0.000000
6.407934 -1.608194 0.000000
25.501526 2.239213 0.000000
16.040679 1.261544 0.000000
21.256642 -2.981548 0.000000
12.657863 -3.486806 0.000000
11.824490 -0.258498 0.000000
40.912286 3.138146 0.000000
37.967127 1.449591 0.000000
36.647069 5.389369 0.000000
4.877535 -0.288277 0.000000
16.107156 2.689505 0.000000
18.980301 5.387706 0.000000
14.248272 3.067517 0.000000
35.651491 0.586659 0.000000
32.975047 5.415073 0.000000
44.924480 1.521622 0.000000
1.213312 2.237343 0.000000
1.800626 2.601983 0.000000
23.996860 -4.548066 0.000000
8.383038 4.789051 0.000000
34.289174 3.280513 0.000000
40.402194 0.920694 0.000000
42.652159 -3.506810 0.000000
41.770743 0.847644 0.000000
33.164310 4.038916 0.000000
38.958479 0.527341 0.000000
22.168668 1.156107 0.000000
18.737919 -4.133450 0.000000
17.553315 4.117357 0.000000
46.244205 -1.409845 0.000000
11.689186 1.011874 0.000000
19.194073 2.985333 0.000000
35.560846 -5.407783 0.000000
36.973779 0.486231 0.000000
23.799011 -5.411193 0.000000
1.775431 -3.490040 0.000000
22.458723 2.939234 0.000000
8.218681 3.583399 0.000000
19.861092 2.416774 0.000000
20.266766 0.772809 0.000000
20.647029 -2.940997 0.000000
16.086320 1.977359 0.000000
32.175490 0.694558 0.000000
14.690060 -0.051042 0.000000
3.109756 -4.124658 0.000000
24.945483 2.900229 0.000000
19.383645 -2.895778 0.000000
11.029458 -2.833330 0.000000
5.883146 -5.366360 0.000000
46.819898 -3.302320 0.000000
4.331542 3.541093 0.000000
27.646829 2.883053 0.000000
47.384368 0.132349 0.000000
[...]
POINT_DATA 1500
SCALARS P float 1
LOOKUP_TABLE default
-727835.012288
-5762.945662
-20379.474007
294530.163755
660944.264388
-80658.684664
103100.055974
130986.222920
85660.358927
116769.170933
55136.791120
85518.493762
44103.844277
48495.178913
35608.957531
28991.680487
8148.854234
15476.481758
-12398.447346
-9046.052383
-21173.506562
-27431.235663
-35023.274548
-40855.051476
-47608.058375
-52121.412138
-56919.985587
-60588.554354
-63267.638478
-64807.256270
-65343.427661
-65639.972508
-66147.405250
-65021.142649
-65778.383948
-64658.634199
-64668.036591
-61484.919695
-60856.275384
-54744.987843
-58763.949458
-53404.779643
-64974.602025
-42380.868397
-50696.131147
-46609.646797
-41032.300238
-55088.458378
-29254.682468
-48312.748743
-49206.618273
-47883.936096
-42707.520097
-39016.564635
-53852.066536
-38485.614291
-58363.507343
-49602.012732
-50071.905038
-58419.292778
-53488.164447
-54164.396765
-52351.756920
-55244.677380
-53929.337604
-53651.701792
-52067.680694
-48877.684549
-47716.251853
-43257.439055
-40683.698962
-39601.205508
-32448.073911
-31079.122413
-22979.794089
-20807.081574
-17044.590782
-12624.591951
-7889.280417
-7958.309884
-8068.905942
-11316.281502
-11748.515648
-15158.578299
-14752.853473
-17363.786276
-15933.503626
-16411.051533
-17396.480971
-15851.460767
-16775.558888
-13700.013351
-15407.659591
-9414.483186
-9590.322529
-17220.823101
11291.324822
9921.307111
-20036.862303
-4063.112165
-14780.732834
-17093.767132
-21992.852955
-24740.157149
-30278.959416
-32610.582212
-36512.522002
-40208.838936
-42328.002275
-45371.436715
-43492.662858
-48712.869400
-48848.138629
-49520.725805
-52151.533158
-51334.476902
-50492.571564
-49530.776036
-50026.289539
-52084.408044
-71254.949214
-34755.977644
-69533.656719
-56754.609007
-57732.581115
-62934.492475
-58310.609905
-86905.870003
-57412.955857
-91063.325895
-88440.500038
-110459.250072
-111188.434471
-99404.512665
-137215.314760
-119911.905436
-141481.429727
-147352.730405
-149896.909825
-158693.432400
-165594.938812
-172101.831024
-177612.967518
-179874.495216
-183346.069444
-180731.744486
-184268.057199
-178785.364323
-189163.765871
-187854.367837
-187967.912582
-191293.885151
-186682.444567
-187502.438979
-188578.206409
-187350.867318
-182979.470455
-165458.588482
-177248.474237
-163876.234675
-174867.404389
-151474.376410
-163739.731746
-159142.224672
-137749.892670
-169523.609576
-121610.230669
-153110.637049
-149962.499987
-185791.788545
53256.145199
-557737.971497
-9575.032281
340572.939053
377487.646148
551665.107195
592400.925195
873125.221271
691306.883760
978305.678687
965910.549502
931281.584845
951619.040260
925464.019407
723685.943014
679520.283006
298887.776973
428697.731610
113106.094571
739131.282764
-5827.568618
-1311.505987
252.680889
-2259.468910
4751.629328
-5996.933883
-26199.640042
-968.778428
2834.903703
1871.379631
91549.824720
-69416.950025
-132.163431
305782.680888
-414.513710
347.729443
-3186.969241
5791.355501
-9006.473218
-898.452934
52175.205279
-5735.463725
-2892.410005
-194.402547
69263.100617
-9110.964916
-1115.826940
8574.541576
-720.469926
5857.775361
1434.047583
5491.993863
-391.202860
7740.561119
4881.075941
269.742442
-1325.376940
-3285.061540
-1000.599572
10876.880542
715.392350
-476.699140
-16519.040135
-1450.363410
-1350.973148
2633.478222
561.854487
17296.249866
11972.776520
-10765.996219
686.368136
7845.996227
15887.259468
16863.503162
-455.750439
-9560.162148
422.175797
61096.747119
6371.147301
-796.000940
-6848.921668
23941.601527
502.803021
3580.266702
41.457723
-4975.170279
2967.318582
5530.196624
-51531.217549
11198.288980
-699.602980
53344.723756
1921.956704
757.486132
19711.909625
874.104949
4.659943
263572.542437
12799.396579
-3900.084860
1029.099874
-1723.193100
-16035.218447
1762.101644
-5493.074804
319.955516
6373.416711
10367.115513
12652.493753
613.313784
-239229.270468
2356.298780
4146.645154
911.724873
-4673.183570
-4406.124514
-1810.392747
-6011.393875
1330.581316
-4618.613246
-213.986209
-6952.163653
16208.882593
-1838.036927
-773.726454
-16482.444399
-665582.445515
2348.405855
-17730.497586
-1436.938350
-9715.496292
134.455117
1826.818735
2589.422636
1566.174621
40772.713143
178.858751
1251.870997
138811.465257
-11732.272207
207.972772
61013.379032
-3434.776201
261932.785160
-27718.213673
-39912.224447
-32254.121607
-886.273278
819.199309
1207.684408
208.475891
2299.920630
93.984132
-3524.537257
4890.883928
14130.128746
584.850182
2061.726110
-3905.859084
45500.476222
-266.254961
51556.598713
-135369.517980
-4505.274621
-8800.092022
246.169273
5843.334652
-7066.631068
-713.356085
8822.950639
-1039.530398
-13262.314496
10059.384693
-6687.497169
-4222.689923
-28492.263184
-5005.921659
11216.690854
46284.490166
13662.741447
4836.440348
7948.861623
2718.053419
14404.184910
-3104.926955
-5972.559138
-1549.823353
32979.854475
-1171.090443
1064.643158
837.297553
3318.812309
-33104.277801
23795.549280
43183.388477
238.048480
55428.125659
3342.876145
40597.298362
485.796327
-1746.767691
9477.672664
2497.202949
-32847.468479
-718745.185868
2597.726415
38133.909465
13325.704885
-3645.512542
-1819.183046
-2725.587478
615.420683
-1780.978990
2032.109106
-3330.024758
3213.167058
-25118.528514
24463.061642
-413.482349
-1655.667010
-2294.823723
721.755614
78.573493
220.821386
-2185.247795
-59548.592873
4950.273856
-10309.612625
4711.461444
4784.838000
8973.499351
-247.445934
7230.339037
-563.803538
-2678.202470
-204.610081
2026.976017
24450.463149
-8315.242652
6029.259036
3837.545768
52723.287613
5105.492814
12538.941898
-3250.669634
-9378.383905
-14052.605467
15489.664965
4802.214880
-6737.545821
28650.061269
-216.491215
29743.561292
1232.188013
-894.792720
-19865.640256
1237.068399
-5058.284091
-199.548274
4112.477934
34703.156388
-2521.150727
-4662.759661
-6305.425335
-3403.601707
-1149.547931
5063.069131
1749.374406
8263.507484
-60266.223608
754.736029
38108.987924
-38.477329
-1263.518126
10799.308449
14759.536718
984.420624
122427.289259
52610.519350
115496.743625
48899.347879
1226.259048
5773.916453
927.256836
4209.530237
7024.649656
454.740469
1044.976182
-2374.043365
271975.376414
2601.747493
-13939.508245
5669.129526
-2043.827977
7145.016958
-207.325636
6749.033043
-17098.310503
650.009715
-7274.731420
-12021.388035
-29906.823524
-1110.965051
2717.469319
19208.246600
-932.793244
-1866.133510
5174.605080
4082.982158
-4260.539222
-11604.445552
-7380.347402
-763.449953
-2828.937923
-1621.663608
324.429264
-427.028081
3935.797901
-1602.369908
-95.404509
772.154153
1599.841698
1729.830431
-2246.766443
2540.958123
2101.399376
-2231.164414
42609.654671
-14657.643380
126990.272797
376280.822887
-979.303303
-834.443803
-2110.601516
14427.031243
-143.813866
1359.308537
-4512.587552
9596.358103
628.563163
38682.041462
5545.681781
-70252.086816
7088.114678
-15887.266515
-6605.353796
-532.077595
3021.072094
-6451.345016
14846.380355
-7195.086833
-5490.504816
-45428.925757
-5002.071533
-1004.045311
-1729.391101
5043.029869
12385.567551
-15289.443218
-84763.317539
-7966.921734
2819.482088
13320.513122
-3148.076659
5970.029531
-2128.694408
-44793.005604
-12311.608376
-3489.264458
2911.989202
92730.986680
-21302.930449
3023.709483
21276.319611
-900.694363
-15977.156924
-4852.681789
4633.046773
124000.708563
-589.113319
-259.112228
51084.814860
-481.646326
5246.338942
193.632695
147217.032696
21688.328476
4705.865023
-2241.326884
12401.224933
-38362.206432
-1191.996649
7480.607424
-5976.262001
-1412.832461
7788.899788
-48448.810827
54160.578132
-3585.844474
6705.131014
4039.017443
4022.897628
-3308.268538
39520.132106
-91898.961355
-265.968744
915.591220
8182.864269
4479.944613
3790.623217
1714.739428
137029.145385
1378.974728
-1568.968876
13788.599162
-590.229312
-100.670721
3838.127652
-16760.164762
-18101.218458
-3256.491419
4366.766863
2135.908152
4296.944695
-1144.995776
-5115.990350
3680.771494
-2770.519410
2371.916814
247.251494
-2309.782841
-15176.807881
-4417.579594
-375.673164
-15444.584170
4049.580326
-1362.965782
158798.019528
-10648.464322
35765.987580
-4485.334014
57.416922
3253.177452
-409.990168
3726.846401
-26992.138455
-6379.273927
-63670.983768
38836.740520
6542.071900
1323.144421
17867.518063
-720.574997
1664.071157
-10522.645064
43404.416797
-16729.780406
-67733.329687
13855.137899
1906.941495
-40731.190212
-22273.951641
-1488.669746
-1117.012947
-5261.575924
-1519.091775
-1437.653108
-15437.931661
-9774.793868
-15163.421753
-20299.801194
-10171.487172
4379.067815
7407.057786
-18192.149309
-22466.848460
2778.530775
19152.005196
7856.573216
-686.746289
968.093668
1163.997097
13700.455283
-662.098627
-60070.009391
-58.669391
-3754.909593
-16191.819462
-2032.689644
12603.535508
-1520.552515
-1057.914011
-5882.063357
-42614.932227
-1305.195241
-11575.991217
3993.190190
-1709.822697
237.166784
-60715.645970
122764.317983
-168.377248
-94.629614
64417.794058
-713.658186
-713.235871
-46144.412398
14172.730671
352989.786317
1162.239680
-12024.503460
-2512.765575
6922.822069
6748.142535
-4670.390054
-39273.464911
-1897.496109
-8232.982023
17388.622027
10009.003379
-3888.188120
-2110.802979
227.348674
51182.874266
-25140.718797
-18989.018325
106416.607832
5646.549659
-5365.378656
11884.721826
-3281.619242
-16.465640
-632724.281766
49530.738221
2668.392407
-2425.380096
-1785.719604
9513.213961
42794.863688
3402.170459
-774.795844
2303.196257
-78961.631820
6313.502289
-399643.308524
1637.604980
-900.764448
-173.655704
-4259.849833
-259.225536
-8720.963917
1049.044331
-11009.141738
-795.143507
44595.930713
-2381.979668
4051.889401
54305.315335
49.248038
-2592.365511
6433.992537
-16008.566338
2830.973231
-21431.712425
2069.444255
738.071021
8135.215206
-16617.604956
1596.197409
5989.356339
1045.267375
-2562.213064
-50718.859866
-1173.709937
7723.844228
1675.794579
-5507.297569
-842.048110
-12874.371006
8246.410363
12171.868119
-4102.569154
-1127.527755
-11251.128655
-24295.386723
-3599.548293
-10558.250367
2327.277437
-701.107423
3151.647250
-2160.855593
34388.794786
7871.968907
-1997.437451
-3969.952643
102.687966
1035.203895
10017.426893
9289.593558
38311.919562
955.963889
-2231.082044
4428.207760
258.626623
8308.699109
4049.556818
-4992.489463
-1763.346956
41284.912112
491.105187
23316.993463
-2291.083987
1339.461935
5778.920598
-733255.449261
-10192.782974
43764.437442
12700.249033
282.351868
134148.949218
-12583.808957
4272.036375
-54685.379772
40459.125930
37362.031002
655.107021
38116.013250
-729.649367
-66789.024300
45340.694858
1274.887933
2947.353147
-10128.005654
-18152.929464
-4976.104753
-1095.812875
-2835.132641
32.202658
2764.606536
53426.464860
-17738.723431
4611.782529
-4390.214432
116830.957841
-2979.065784
-63789.004180
5028.173800
-210.025821
617.799093
3258.269248
953.669169
-7518.211485
-551.485498
-5381.900461
-1089.449262
-19615.362872
2393.927508
412.913501
-17204.550972
-1580.042059
-67456.297097
40628.598105
-7.633585
3075.092443
-5488.737461
-1019.671679
-728.955717
4764.044606
-3060.144302
1859.223774
-6518.946418
3892.489481
6708.232635
-2661.833474
-15498.434458
-141.683736
866.030082
9204.622144
-890.754961
40806.893469
-44069.809358
-28265.133332
39182.397039
-445.397397
-21619.414267
-8926.277759
1971.534068
-918.202755
-1361.158158
11852.936704
-2798.658727
-23.175063
-5718.681552
-801.753500
-8048.600311
28907.488364
27636.966705
-4397.890985
2556.935637
4129.856655
3916.706742
-5152.043441
8478.468114
-22784.094193
7365.071630
-17691.888371
45.912401
1633.890469
-17743.358922
11582.875165
-5681.078025
10339.901092
-14423.670454
-1662.957131
10805.876162
-10246.239119
4860.405280
-24537.616557
444.644445
889.492885
-13015.742802
-1293.816236
40477.384510
-6119.706460
-2430.160951
77.742293
1148.209604
-498049.757978
-7867.586524
2218.620197
-17675.456856
-7790.689559
3287.772285
747.179834
3964.416824
-14541.564201
6738.551737
-4425.709455
-80.535217
-19457.963954
-19130.334531
3268.396022
-4085.488545
494.188756
-673.426072
-3191.624412
2548.144271
-70702.454989
55108.403580
-4880.912605
-923.294037
1993.173247
-6545.438478
10911.372897
2642.620204
740.120240
-164241.833714
21222.194045
18.808363
-27613.226181
-8158.645900
38349.635062
87.350847
148095.331953
7670.081187
1159.974985
135220.599988
-65065.138399
2973.932779
-2019.513724
4511.394956
-807839.267243
1809.197147
1590.638043
-6007.664136
2299.104038
2487.475871
4098.338587
-2400.067773
-11073.021200
-762074.353038
1140.870862
-984.801841
133298.945100
908.506181
-1249.576474
26309.824354
-1121.831976
-50110.470691
-367.730070
-7729.713944
-3030.871665
-15668.262089
-21953.573258
9459.769219
-7248.847474
39126.395022
342.996555
-5289.351093
789.555860
-10947.390852
-2662.338018
4851.959742
-166.326472
-37435.671701
-23403.810220
-5438.639918
-7713.587077
4552.271911
-44.604032
-6994.284507
-3704.084963
-1214.382657
-2540.999692
-107.688304
-3206.883673
1346.234838
5486.034802
10550.587417
15394.522919
3659.661130
-3717.873683
-22329.761404
141697.494835
-10193.968924
-11725.550323
848.414222
-2798.553081
-12920.822849
2970.329111
1315.994986
-48664.134776
299.641705
-294.907854
-17814.528630
-3448.646283
-476.265312
-785.466478
38821.532880
530.485887
724.363084
535.802230
-3174.385357
836.302843
-358.792174
-5017.743194
-433.678545
-13716.637680
3284.646513
3628.164945
2643.285888
4027.437621
1303.608980
32582.524942
12098.284486
1066.681075
-483.676340
-4488.945545
58.255713
-3334.182310
-7003.100530
49169.032741
11423.291741
-526092.737163
-12198.750342
1908.498342
-18357.426005
64.078893
-7790.087905
6711.206103
-2471.292812
-3437.708134
7551.662598
18693.296538
3858.368714
-8033.422050
41791.627992
340225.799002
-992.966584
-1367.249556
144941.700239
-5318.348891
20885.744044
-4733.441483
1264.883379
1273.581634
13526.649095
-972.920565
113.823457
-58620.834492
3598.752998
-1783.998301
3174.105997
-16195.538549
-9935.730868
-8606.232798
1928.322154
-2215.862348
131004.453479
5720.090893
-3672.972474
-8894.045846
-2323.797965
3937.926811
9733.886137
2777.269407
-25389.543824
-12268.941357
1406.219275
-5468.837101
-875.066458
9617.083619
-2844.112776
1283.200269
1442.524673
15846.133578
3366.233164
-2918.726310
116865.033806
-4958.484334
-678.302958
-2270.986768
9310.389664
-5496.138394
-70993.649284
-7082.058812
-9494.033986
15735.436772
51674.323359
-17132.717238
-21485.829631
11377.413591
-14640.306855
1361.891364
-6498.943966
-20599.710119
691.342491
-506.753989
-942.791419
4747.785412
-193.073423
-59145.907301
-3351.940661
-2659.957191
-3434.074394
-18125.025905
-6135.378651
19725.179305
-5196.180244
-103.351169
147434.124333
-23573.330876
3557.181099
7432.417167
-20115.456507
373.397583
-1329.291558
3622.793978
-994.573997
13278.309708
2373.404128
15263.302125
13141.886745
-838.508605
43442.948593
-1038.329552
7991.741926
14.722696
-3074.264798
675.073647
-22.007192
127.770072
-1817.901977
610.539620
2124.517962
-980.689125
53120.047560
13356.938259
-8163.785100
4903.008130
613.757912
11550.556864
-5029.254099
-38006.717725
7801.237744
-715.674727
-3591.275840
8244.368106
107468.287817
16935.342315
356.476531
-76676.884115
26905.855321
-406.833768
2345.227365
14081.924772
2223.991398
20821.954494
-8294.237218
-3025.213693
3272.370800
-51517.828378
8592.852163
4347.043573
-50448.782589
1502.798443
-306.140938
-4241.984239
-1480.927698
109229.430299
2107.876155
1287.463420
-4587.059804
-16388.315376
-6347.422360
31.099809
-3275.633150
-351048.802753
-3356.988067
5430.939105
-3781.164281
2827.857316
220.563175
3437.127966
67671.347386
2077.066692
-5120.668545
-1833.028429
-174.707090
1695.853403
-684.712116
-19472.541721
-2845.163506
-25646.054974
-666.869499
562.098117
1885.793032
-922.676987
-2615.326542
13985.142008
-458.986431
4487.765087
3978.319732
449.548786
2709.995689
124736.265851
-57665.179960
-3617.326629
2704.435123
705.549331
5215.618128
57.084636
-16466.128842
-1529.528071
-739.625955
1172.530310
-55583.521940
-1565.270563
1120.325875
108.069001
29467.277603
-750999.976490
1256.351289
3082.284833
-15973.172651
-14535.217721
2238.889023
-909.393635
9822.493725
39777.588151
10694.747759
-4863.575090
-16106.956741
33931.006313
11037.068590
-8025.009408
168.130858
-321.294415
-24431.034635
-19895.574883
-1938.166424
-504.389738
150353.693420
-6736.585802
-8568.694505
-6284.922022
3512.633167
-4689.970385
-1092.645598
4759.467097
266.186060
21050.040383
-1896.442906
18408.309274
952.818398
5262.792198
777.783791
-3912.730947
767.316453
10875.948510
-3373.481914
1911.050261
14096.006321
-14752.892796
10621.441287
1150.414996
13512.794527
-169385.202958
-22369.032564
5794.791299
19219.666958
-3007.546301
5617.739037
2450.862019
1597.925514
8682.432499
-116.349488
1569.277169
1390.128581
4279.557264
1606.441479
14821.088861
595.356485
-3279.698065
-9855.384358
993.076396
46381.494548
-1501.438178
1044.784864
-6.756617
21908.024497
-557.686226
9658.845005
-12123.037893
-58271.206579
1163.846472
1070.398713
137887.405634
-670.387860
-5592.352352
841.874912
-1462.472886
-915.402796
-23694.496842
-3440.219957
6526.367285
8198.759188
-1228.227412
3340.317096
18105.287086
21328.870833
38973.523840
4695.888768
-1977.857079
8311.383760
-11195.416491
-153.139059
23234.204204
1884.754238
-6141.153590
-10973.660993
1366.771302
-52693.874170
3107.221997
4358.641240
-2179.631924
2993.611755
-16586.991709
2017.165255
48523.273652
-532.103091
2989.760248
17088.233406
-1623.740193
-2924.922728
366.906477
-1102.143808
31.547128
-469.842126
10156.498984
-7668.181531
19785.477706
-18636.177379
-3587.236149
49235.945223
-1144.851901
145990.868060
-63558.614277
-15905.153915
12529.773964
-10000.823351
-525.465195
4283.345989
-1172.245085
9957.000255
-2666.375543
258422.775621
-994.537671
-4067.661024
919.208374
72859.087706
29078.182656
-5787.290987
1311.758355
95865.903780
58558.951941
14681.949445
158399.339670
7812.655522
-407.442493
-2598.903076
2735.406967
22571.449246
-2012.061322
996.883158
-6244.930238
-9372.129391
8463.826179
-2910.842658
148162.469776
-2599.096313
90916.940826
-1715.131601
-385.478422
-4435.668708
19287.731251
830.682620
-1494.704930
1443.946625
147943.664424
2727.019005
354855.883428
5355.929182
-607807.267325
-3138.429545
-48.017221
18380.558982
3000.642244
1567.197503
-56157.198998
-983.862990
-17050.132355
-6452.171541
-17.191053
-79.422139
-4915.235849
41045.718952
4668.171985
-8494.424864
791.298600
934.694396
-21364.356259
4523.601670
1314.924483
3530.097559
-9447.039566
-538.572805
-72612.815605
-37605.659608
-3031.566807
2178.138945
193.417440
-1459.720605
18189.144633
-229.212649
4205.388670
19622.691879
20999.035807
-303.980293
35751.325264
23410.662606
15063.397115
-3115.155372
236227.394252
-2760.427658
-778.224229
48980.057920
-1897.164878
1692.806714
-524.613353
148600.254381
4771.783737
4969.058065
-3424.112708
21362.224644
3462.067822
-2881.655484
-10944.225212
-20021.181236
18301.661759
4854.264465
6316.947864
-18930.278196
961.357147
970.199584
202.494191
-15730.667732
10588.497850
147311.771270
6043.050777
-6198.150338
4598.806193
47344.996895
-3867.185721
-36970.250918
4174.094077
-299529.660345
3116.877605
482.334449
144490.489498
8596.082425
135.238635
-99.944056
8321.790243
31729.465453
46651.695094
5829.305662
203.070995
-1537.726334
2415.278495
-770.548761
436.545482
-8069.299259
-3619.618517
662.970770
301324.221843
-1088.462147
-9769.497196
-1051.898615
7237.930717
