# vtk DataFile Version 2.0
cantilever_quad8_mix
ASCII
DATASET POLYDATA
POINTS 100 float
0.000000 -6.000000 0.000000
48.000000 -6.000000 0.000000
48.000000 6.000000 0.000000
0.000000 6.000000 0.000000
2.400000 -6.000000 0.000000
4.800000 -6.000000 0.000000
7.200000 -6.000000 0.000000
9.600000 -6.000000 0.000000
12.000000 -6.000000 0.000000
14.400000 -6.000000 0.000000
16.800000 -6.000000 0.000000
19.200000 -6.000000 0.000000
21.600000 -6.000000 0.000000
24.000000 -6.000000 0.000000
26.400000 -6.000000 0.000000
28.800000 -6.000000 0.000000
31.200000 -6.000000 0.000000
33.600000 -6.000000 0.000000
36.000000 -6.000000 0.000000
38.400000 -6.000000 0.000000
40.800000 -6.000000 0.000000
43.200000 -6.000000 0.000000
45.600000 -6.000000 0.000000
48.000000 -3.600000 0.000000
48.000000 -1.200000 0.000000
48.000000 1.200000 0.000000
48.000000 3.600000 0.000000
45.600000 6.000000 0.000000
43.200000 6.000000 0.000000
40.800000 6.000000 0.000000
38.400000 6.000000 0.000000
36.000000 6.000000 0.000000
33.600000 6.000000 0.000000
31.200000 6.000000 0.000000
28.800000 6.000000 0.000000
26.400000 6.000000 0.000000
24.000000 6.000000 0.000000
21.600000 6.000000 0.000000
19.200000 6.000000 0.000000
16.800000 6.000000 0.000000
14.400000 6.000000 0.000000
12.000000 6.000000 0.000000
9.600000 6.000000 0.000000
7.200000 6.000000 0.000000
4.800000 6.000000 0.000000
2.400000 6.000000 0.000000
0.000000 3.600000 0.000000
0.000000 1.200000 0.000000
0.000000 -1.200000 0.000000
0.000000 -3.600000 0.000000
12.985278 -0.162123 0.000000
35.809184 -0.232510 0.000000
8.285835 -2.872666 0.000000
35.790179 -3.019810 0.000000
8.851852 2.936313 0.000000
16.080943 2.803955 0.000000
3.211091 2.852122 0.000000
10.557906 -2.913356 0.000000
28.206188 -0.074284 0.000000
35.291785 2.798010 0.000000
3.173834 -2.816954 0.000000
13.671705 2.784703 0.000000
11.373303 2.930920 0.000000
39.838617 2.834094 0.000000
3.222909 0.032385 0.000000
32.755162 -3.007813 0.000000
16.097402 -2.973548 0.000000
27.989890 3.027062 0.000000
44.882172 -0.083108 0.000000
6.146696 2.901664 0.000000
22.218259 -3.095651 0.000000
44.859744 -2.898738 0.000000
9.756081 0.081022 0.000000
21.584492 -0.135988 0.000000
19.083754 -0.218884 0.000000
19.214170 -3.024208 0.000000
20.894788 2.934836 0.000000
23.773546 -0.121989 0.000000
30.439389 2.980965 0.000000
37.573048 2.864680 0.000000
32.996194 -0.184305 0.000000
38.763317 -0.192254 0.000000
27.339063 -3.025656 0.000000
42.168209 2.827790 0.000000
44.847231 2.815854 0.000000
38.852255 -2.957750 0.000000
24.927609 -3.041886 0.000000
13.170975 -2.933059 0.000000
18.548179 2.831762 0.000000
23.201504 2.988415 0.000000
25.555060 3.011342 0.000000
41.866748 -2.978014 0.000000
32.919446 2.864752 0.000000
6.461949 0.084751 0.000000
25.980524 0.065359 0.000000
29.948739 -3.052953 0.000000
16.179621 -0.195529 0.000000
41.827418 -0.193657 0.000000
30.458261 -0.024217 0.000000
5.895418 -2.862375 0.000000
POLYGONS 148 592
3 0 4 49
3 4 5 60
3 6 7 52
3 7 8 57
3 5 6 99
3 49 60 48
3 49 4 60
3 64 48 60
3 99 60 5
3 6 52 99
3 52 93 99
3 99 64 60
3 7 57 52
3 57 72 52
3 8 87 57
3 66 9 10
3 75 10 11
3 12 13 70
3 73 70 77
3 11 12 75
3 12 70 75
3 96 50 87
3 87 50 57
3 87 9 66
3 96 87 66
3 74 75 73
3 74 96 66
3 50 96 61
3 74 88 96
3 75 70 73
3 74 66 75
3 10 75 66
3 73 76 74
3 77 70 86
3 9 87 8
3 57 50 72
3 47 64 56
3 64 47 48
3 56 64 69
3 47 56 46
3 69 93 54
3 93 69 64
3 54 93 72
3 69 54 43
3 99 93 64
3 56 69 44
3 46 45 3
3 46 56 45
3 45 56 44
3 44 69 43
3 54 42 43
3 54 62 42
3 50 62 72
3 50 61 62
3 41 62 61
3 62 41 42
3 96 88 55
3 61 96 55
3 74 76 88
3 40 61 55
3 52 72 93
3 39 55 88
3 41 61 40
3 40 55 39
3 76 89 37
3 76 73 89
3 37 38 76
3 89 36 37
3 38 39 88
3 38 88 76
3 77 90 89
3 62 54 72
3 77 89 73
3 70 13 86
3 82 14 15
3 95 15 16
3 82 15 95
3 95 16 65
3 65 16 17
3 53 17 18
3 95 65 98
3 82 86 14
3 82 95 58
3 94 86 82
3 80 53 51
3 53 80 65
3 85 51 53
3 59 80 51
3 53 65 17
3 65 80 98
3 53 18 19
3 14 86 13
3 85 19 20
3 91 20 21
3 22 1 23
3 21 22 71
3 22 23 71
3 81 85 97
3 81 51 85
3 97 85 91
3 63 81 97
3 71 68 97
3 71 91 21
3 68 24 25
3 24 68 71
3 71 23 24
3 71 97 91
3 85 20 91
3 79 51 81
3 85 53 19
3 68 83 97
3 67 90 94
3 36 89 90
3 58 94 82
3 58 67 94
3 78 98 92
3 98 78 58
3 98 80 92
3 78 92 33
3 58 95 98
3 67 58 78
3 90 35 36
3 35 90 67
3 35 67 34
3 34 67 78
3 34 78 33
3 92 32 33
3 92 59 32
3 77 94 90
3 79 59 51
3 92 80 59
3 30 79 63
3 59 79 31
3 68 84 83
3 83 63 97
3 84 25 26
3 29 63 83
3 79 81 63
3 28 83 84
3 31 79 30
3 30 63 29
3 84 27 28
3 28 29 83
3 2 27 26
3 84 26 27
3 59 31 32
3 84 68 25
3 77 86 94
POINT_DATA 100
SCALARS P float 1
LOOKUP_TABLE default
1183.679524
0.517343
-0.364651
-1178.984806
505.916925
1121.639627
789.327875
862.201626
761.641442
724.063851
670.791664
618.277898
567.195051
515.476892
464.066330
412.634941
361.131665
309.134897
258.690624
204.467079
158.147546
98.084416
60.690499
-19.853869
4.138124
-4.253430
19.913639
-60.741013
-98.076485
-158.673386
-204.256469
-258.436427
-309.109042
-361.152039
-412.498351
-464.067115
-515.676859
-567.085319
-618.795305
-669.409634
-725.286505
-763.585261
-854.928671
-799.324954
-1112.759631
-506.179963
-995.402033
-40.385998
42.446766
993.027199
20.135870
10.176668
428.086847
132.013954
-423.433617
-317.389157
-460.393767
375.837111
5.303202
-127.036925
456.811527
-347.946687
-375.282278
-82.239668
-4.742436
164.244733
336.785124
-217.062091
1.167049
-416.297201
285.497275
33.550406
-10.859201
12.729389
22.695399
312.656614
-284.038928
10.810377
-187.315498
-107.649670
9.819257
6.330219
223.742993
-58.759629
-32.971219
96.916828
251.486069
373.085479
-300.113479
-265.674335
-241.812613
65.119240
-154.922610
-13.613138
-5.196663
197.360598
22.388773
4.202936
1.425523
409.435860
