# vtk DataFile Version 2.0
cantilever_Q4P1_mix
ASCII
DATASET POLYDATA
POINTS 1105 float
0.000000 -6.000000 0.000000
48.000000 -6.000000 0.000000
48.000000 6.000000 0.000000
0.000000 6.000000 0.000000
0.750000 -6.000000 0.000000
1.500000 -6.000000 0.000000
2.250000 -6.000000 0.000000
3.000000 -6.000000 0.000000
3.750000 -6.000000 0.000000
4.500000 -6.000000 0.000000
5.250000 -6.000000 0.000000
6.000000 -6.000000 0.000000
6.750000 -6.000000 0.000000
7.500000 -6.000000 0.000000
8.250000 -6.000000 0.000000
9.000000 -6.000000 0.000000
9.750000 -6.000000 0.000000
10.500000 -6.000000 0.000000
11.250000 -6.000000 0.000000
12.000000 -6.000000 0.000000
12.750000 -6.000000 0.000000
13.500000 -6.000000 0.000000
14.250000 -6.000000 0.000000
15.000000 -6.000000 0.000000
15.750000 -6.000000 0.000000
16.500000 -6.000000 0.000000
17.250000 -6.000000 0.000000
18.000000 -6.000000 0.000000
18.750000 -6.000000 0.000000
19.500000 -6.000000 0.000000
20.250000 -6.000000 0.000000
21.000000 -6.000000 0.000000
21.750000 -6.000000 0.000000
22.500000 -6.000000 0.000000
23.250000 -6.000000 0.000000
24.000000 -6.000000 0.000000
24.750000 -6.000000 0.000000
25.500000 -6.000000 0.000000
26.250000 -6.000000 0.000000
27.000000 -6.000000 0.000000
27.750000 -6.000000 0.000000
28.500000 -6.000000 0.000000
29.250000 -6.000000 0.000000
30.000000 -6.000000 0.000000
30.750000 -6.000000 0.000000
31.500000 -6.000000 0.000000
32.250000 -6.000000 0.000000
33.000000 -6.000000 0.000000
33.750000 -6.000000 0.000000
34.500000 -6.000000 0.000000
35.250000 -6.000000 0.000000
36.000000 -6.000000 0.000000
36.750000 -6.000000 0.000000
37.500000 -6.000000 0.000000
38.250000 -6.000000 0.000000
39.000000 -6.000000 0.000000
39.750000 -6.000000 0.000000
40.500000 -6.000000 0.000000
41.250000 -6.000000 0.000000
42.000000 -6.000000 0.000000
42.750000 -6.000000 0.000000
43.500000 -6.000000 0.000000
44.250000 -6.000000 0.000000
45.000000 -6.000000 0.000000
45.750000 -6.000000 0.000000
46.500000 -6.000000 0.000000
47.250000 -6.000000 0.000000
48.000000 -5.250000 0.000000
48.000000 -4.500000 0.000000
48.000000 -3.750000 0.000000
48.000000 -3.000000 0.000000
48.000000 -2.250000 0.000000
48.000000 -1.500000 0.000000
48.000000 -0.750000 0.000000
48.000000 -0.000000 0.000000
48.000000 0.750000 0.000000
48.000000 1.500000 0.000000
48.000000 2.250000 0.000000
48.000000 3.000000 0.000000
48.000000 3.750000 0.000000
48.000000 4.500000 0.000000
48.000000 5.250000 0.000000
47.250000 6.000000 0.000000
46.500000 6.000000 0.000000
45.750000 6.000000 0.000000
45.000000 6.000000 0.000000
44.250000 6.000000 0.000000
43.500000 6.000000 0.000000
42.750000 6.000000 0.000000
42.000000 6.000000 0.000000
41.250000 6.000000 0.000000
40.500000 6.000000 0.000000
39.750000 6.000000 0.000000
39.000000 6.000000 0.000000
38.250000 6.000000 0.000000
37.500000 6.000000 0.000000
36.750000 6.000000 0.000000
36.000000 6.000000 0.000000
35.250000 6.000000 0.000000
34.500000 6.000000 0.000000
33.750000 6.000000 0.000000
33.000000 6.000000 0.000000
32.250000 6.000000 0.000000
31.500000 6.000000 0.000000
30.750000 6.000000 0.000000
30.000000 6.000000 0.000000
29.250000 6.000000 0.000000
28.500000 6.000000 0.000000
27.750000 6.000000 0.000000
27.000000 6.000000 0.000000
26.250000 6.000000 0.000000
25.500000 6.000000 0.000000
24.750000 6.000000 0.000000
24.000000 6.000000 0.000000
23.250000 6.000000 0.000000
22.500000 6.000000 0.000000
21.750000 6.000000 0.000000
21.000000 6.000000 0.000000
20.250000 6.000000 0.000000
19.500000 6.000000 0.000000
18.750000 6.000000 0.000000
18.000000 6.000000 0.000000
17.250000 6.000000 0.000000
16.500000 6.000000 0.000000
15.750000 6.000000 0.000000
15.000000 6.000000 0.000000
14.250000 6.000000 0.000000
13.500000 6.000000 0.000000
12.750000 6.000000 0.000000
12.000000 6.000000 0.000000
11.250000 6.000000 0.000000
10.500000 6.000000 0.000000
9.750000 6.000000 0.000000
9.000000 6.000000 0.000000
8.250000 6.000000 0.000000
7.500000 6.000000 0.000000
6.750000 6.000000 0.000000
6.000000 6.000000 0.000000
5.250000 6.000000 0.000000
4.500000 6.000000 0.000000
3.750000 6.000000 0.000000
3.000000 6.000000 0.000000
2.250000 6.000000 0.000000
1.500000 6.000000 0.000000
0.750000 6.000000 0.000000
0.000000 5.250000 0.000000
0.000000 4.500000 0.000000
0.000000 3.750000 0.000000
0.000000 3.000000 0.000000
0.000000 2.250000 0.000000
0.000000 1.500000 0.000000
0.000000 0.750000 0.000000
0.000000 0.000000 0.000000
0.000000 -0.750000 0.000000
0.000000 -1.500000 0.000000
0.000000 -2.250000 0.000000
0.000000 -3.000000 0.000000
0.000000 -3.750000 0.000000
0.000000 -4.500000 0.000000
0.000000 -5.250000 0.000000
0.750000 -5.250000 0.000000
0.750000 -4.500000 0.000000
0.750000 -3.750000 0.000000
0.750000 -3.000000 0.000000
0.750000 -2.250000 0.000000
0.750000 -1.500000 0.000000
0.750000 -0.750000 0.000000
0.750000 0.000000 0.000000
0.750000 0.750000 0.000000
0.750000 1.500000 0.000000
0.750000 2.250000 0.000000
0.750000 3.000000 0.000000
0.750000 3.750000 0.000000
0.750000 4.500000 0.000000
0.750000 5.250000 0.000000
1.500000 -5.250000 0.000000
1.500000 -4.500000 0.000000
1.500000 -3.750000 0.000000
1.500000 -3.000000 0.000000
1.500000 -2.250000 0.000000
1.500000 -1.500000 0.000000
1.500000 -0.750000 0.000000
1.500000 0.000000 0.000000
1.500000 0.750000 0.000000
1.500000 1.500000 0.000000
1.500000 2.250000 0.000000
1.500000 3.000000 0.000000
1.500000 3.750000 0.000000
1.500000 4.500000 0.000000
1.500000 5.250000 0.000000
2.250000 -5.250000 0.000000
2.250000 -4.500000 0.000000
2.250000 -3.750000 0.000000
2.250000 -3.000000 0.000000
2.250000 -2.250000 0.000000
2.250000 -1.500000 0.000000
2.250000 -0.750000 0.000000
2.250000 0.000000 0.000000
2.250000 0.750000 0.000000
2.250000 1.500000 0.000000
2.250000 2.250000 0.000000
2.250000 3.000000 0.000000
2.250000 3.750000 0.000000
2.250000 4.500000 0.000000
2.250000 5.250000 0.000000
3.000000 -5.250000 0.000000
3.000000 -4.500000 0.000000
3.000000 -3.750000 0.000000
3.000000 -3.000000 0.000000
3.000000 -2.250000 0.000000
3.000000 -1.500000 0.000000
3.000000 -0.750000 0.000000
3.000000 0.000000 0.000000
3.000000 0.750000 0.000000
3.000000 1.500000 0.000000
3.000000 2.250000 0.000000
3.000000 3.000000 0.000000
3.000000 3.750000 0.000000
3.000000 4.500000 0.000000
3.000000 5.250000 0.000000
3.750000 -5.250000 0.000000
3.750000 -4.500000 0.000000
3.750000 -3.750000 0.000000
3.750000 -3.000000 0.000000
3.750000 -2.250000 0.000000
3.750000 -1.500000 0.000000
3.750000 -0.750000 0.000000
3.750000 0.000000 0.000000
3.750000 0.750000 0.000000
3.750000 1.500000 0.000000
3.750000 2.250000 0.000000
3.750000 3.000000 0.000000
3.750000 3.750000 0.000000
3.750000 4.500000 0.000000
3.750000 5.250000 0.000000
4.500000 -5.250000 0.000000
4.500000 -4.500000 0.000000
4.500000 -3.750000 0.000000
4.500000 -3.000000 0.000000
4.500000 -2.250000 0.000000
4.500000 -1.500000 0.000000
4.500000 -0.750000 0.000000
4.500000 0.000000 0.000000
4.500000 0.750000 0.000000
4.500000 1.500000 0.000000
4.500000 2.250000 0.000000
4.500000 3.000000 0.000000
4.500000 3.750000 0.000000
4.500000 4.500000 0.000000
4.500000 5.250000 0.000000
5.250000 -5.250000 0.000000
5.250000 -4.500000 0.000000
5.250000 -3.750000 0.000000
5.250000 -3.000000 0.000000
5.250000 -2.250000 0.000000
5.250000 -1.500000 0.000000
5.250000 -0.750000 0.000000
5.250000 0.000000 0.000000
5.250000 0.750000 0.000000
5.250000 1.500000 0.000000
5.250000 2.250000 0.000000
5.250000 3.000000 0.000000
5.250000 3.750000 0.000000
5.250000 4.500000 0.000000
5.250000 5.250000 0.000000
6.000000 -5.250000 0.000000
6.000000 -4.500000 0.000000
6.000000 -3.750000 0.000000
6.000000 -3.000000 0.000000
6.000000 -2.250000 0.000000
6.000000 -1.500000 0.000000
6.000000 -0.750000 0.000000
6.000000 0.000000 0.000000
6.000000 0.750000 0.000000
6.000000 1.500000 0.000000
6.000000 2.250000 0.000000
6.000000 3.000000 0.000000
6.000000 3.750000 0.000000
6.000000 4.500000 0.000000
6.000000 5.250000 0.000000
6.750000 -5.250000 0.000000
6.750000 -4.500000 0.000000
6.750000 -3.750000 0.000000
6.750000 -3.000000 0.000000
6.750000 -2.250000 0.000000
6.750000 -1.500000 0.000000
6.750000 -0.750000 0.000000
6.750000 0.000000 0.000000
6.750000 0.750000 0.000000
6.750000 1.500000 0.000000
6.750000 2.250000 0.000000
6.750000 3.000000 0.000000
6.750000 3.750000 0.000000
6.750000 4.500000 0.000000
6.750000 5.250000 0.000000
7.500000 -5.250000 0.000000
7.500000 -4.500000 0.000000
7.500000 -3.750000 0.000000
7.500000 -3.000000 0.000000
7.500000 -2.250000 0.000000
7.500000 -1.500000 0.000000
7.500000 -0.750000 0.000000
7.500000 0.000000 0.000000
7.500000 0.750000 0.000000
7.500000 1.500000 0.000000
7.500000 2.250000 0.000000
7.500000 3.000000 0.000000
7.500000 3.750000 0.000000
7.500000 4.500000 0.000000
7.500000 5.250000 0.000000
8.250000 -5.250000 0.000000
8.250000 -4.500000 0.000000
8.250000 -3.750000 0.000000
8.250000 -3.000000 0.000000
8.250000 -2.250000 0.000000
8.250000 -1.500000 0.000000
8.250000 -0.750000 0.000000
8.250000 0.000000 0.000000
8.250000 0.750000 0.000000
8.250000 1.500000 0.000000
8.250000 2.250000 0.000000
8.250000 3.000000 0.000000
8.250000 3.750000 0.000000
8.250000 4.500000 0.000000
8.250000 5.250000 0.000000
9.000000 -5.250000 0.000000
9.000000 -4.500000 0.000000
9.000000 -3.750000 0.000000
9.000000 -3.000000 0.000000
9.000000 -2.250000 0.000000
9.000000 -1.500000 0.000000
9.000000 -0.750000 0.000000
9.000000 0.000000 0.000000
9.000000 0.750000 0.000000
9.000000 1.500000 0.000000
9.000000 2.250000 0.000000
9.000000 3.000000 0.000000
9.000000 3.750000 0.000000
9.000000 4.500000 0.000000
9.000000 5.250000 0.000000
9.750000 -5.250000 0.000000
9.750000 -4.500000 0.000000
9.750000 -3.750000 0.000000
9.750000 -3.000000 0.000000
9.750000 -2.250000 0.000000
9.750000 -1.500000 0.000000
9.750000 -0.750000 0.000000
9.750000 0.000000 0.000000
9.750000 0.750000 0.000000
9.750000 1.500000 0.000000
9.750000 2.250000 0.000000
9.750000 3.000000 0.000000
9.750000 3.750000 0.000000
9.750000 4.500000 0.000000
9.750000 5.250000 0.000000
10.500000 -5.250000 0.000000
[...]
POINT_DATA 1105
VECTORS U float
-0.000002 0.001494 0.000000
0.012036 0.068684 0.000000
-0.012036 0.068684 0.000000
0.000002 0.001494 0.000000
0.000371 0.001567 0.000000
0.000738 0.001683 0.000000
0.001099 0.001845 0.000000
0.001455 0.002052 0.000000
0.001805 0.002303 0.000000
0.002148 0.002597 0.000000
0.002486 0.002934 0.000000
0.002818 0.003312 0.000000
0.003145 0.003732 0.000000
0.003465 0.004192 0.000000
0.003779 0.004692 0.000000
0.004088 0.005231 0.000000
0.004391 0.005808 0.000000
0.004688 0.006422 0.000000
0.004979 0.007073 0.000000
0.005264 0.007760 0.000000
0.005543 0.008483 0.000000
0.005816 0.009240 0.000000
0.006084 0.010030 0.000000
0.006345 0.010854 0.000000
0.006601 0.011710 0.000000
0.006851 0.012598 0.000000
0.007095 0.013517 0.000000
0.007333 0.014465 0.000000
0.007565 0.015443 0.000000
0.007791 0.016450 0.000000
0.008012 0.017485 0.000000
0.008226 0.018547 0.000000
0.008435 0.019635 0.000000
0.008638 0.020749 0.000000
0.008835 0.021888 0.000000
0.009026 0.023051 0.000000
0.009211 0.024238 0.000000
0.009390 0.025448 0.000000
0.009563 0.026679 0.000000
0.009731 0.027932 0.000000
0.009893 0.029206 0.000000
0.010048 0.030499 0.000000
0.010198 0.031811 0.000000
0.010342 0.033142 0.000000
0.010480 0.034491 0.000000
0.010613 0.035856 0.000000
0.010739 0.037237 0.000000
0.010860 0.038634 0.000000
0.010974 0.040046 0.000000
0.011083 0.041472 0.000000
0.011186 0.042910 0.000000
0.011283 0.044362 0.000000
0.011374 0.045825 0.000000
0.011459 0.047299 0.000000
0.011538 0.048783 0.000000
0.011612 0.050277 0.000000
0.011679 0.051780 0.000000
0.011741 0.053290 0.000000
0.011797 0.054809 0.000000
0.011847 0.056333 0.000000
0.011891 0.057864 0.000000
0.011929 0.059400 0.000000
0.011962 0.060940 0.000000
0.011988 0.062484 0.000000
0.012009 0.064031 0.000000
0.012024 0.065580 0.000000
0.012033 0.067130 0.000000
0.010492 0.068682 0.000000
0.008965 0.068682 0.000000
0.007450 0.068682 0.000000
0.005947 0.068681 0.000000
0.004453 0.068681 0.000000
0.002965 0.068681 0.000000
0.001481 0.068681 0.000000
0.000000 0.068681 0.000000
-0.001481 0.068681 0.000000
-0.002965 0.068681 0.000000
-0.004453 0.068681 0.000000
-0.005947 0.068681 0.000000
-0.007450 0.068682 0.000000
-0.008965 0.068682 0.000000
-0.010492 0.068682 0.000000
-0.012033 0.067130 0.000000
-0.012024 0.065580 0.000000
-0.012009 0.064031 0.000000
-0.011988 0.062484 0.000000
-0.011962 0.060940 0.000000
-0.011929 0.059400 0.000000
-0.011891 0.057864 0.000000
-0.011847 0.056333 0.000000
-0.011797 0.054809 0.000000
-0.011741 0.053290 0.000000
-0.011679 0.051780 0.000000
-0.011612 0.050277 0.000000
-0.011538 0.048783 0.000000
-0.011459 0.047299 0.000000
-0.011374 0.045825 0.000000
-0.011283 0.044362 0.000000
-0.011186 0.042910 0.000000
-0.011083 0.041472 0.000000
-0.010974 0.040046 0.000000
-0.010860 0.038634 0.000000
-0.010739 0.037237 0.000000
-0.010613 0.035856 0.000000
-0.010480 0.034491 0.000000
-0.010342 0.033142 0.000000
-0.010198 0.031811 0.000000
-0.010048 0.030499 0.000000
-0.009893 0.029206 0.000000
-0.009731 0.027932 0.000000
-0.009563 0.026679 0.000000
-0.009390 0.025448 0.000000
-0.009211 0.024238 0.000000
-0.009026 0.023051 0.000000
-0.008835 0.021888 0.000000
-0.008638 0.020749 0.000000
-0.008435 0.019635 0.000000
-0.008226 0.018547 0.000000
-0.008012 0.017485 0.000000
-0.007791 0.016450 0.000000
-0.007565 0.015443 0.000000
-0.007333 0.014465 0.000000
-0.007095 0.013517 0.000000
-0.006851 0.012598 0.000000
-0.006601 0.011710 0.000000
-0.006345 0.010854 0.000000
-0.006084 0.010030 0.000000
-0.005816 0.009240 0.000000
-0.005543 0.008483 0.000000
-0.005264 0.007760 0.000000
-0.004979 0.007073 0.000000
-0.004688 0.006422 0.000000
-0.004391 0.005808 0.000000
-0.004088 0.005231 0.000000
-0.003779 0.004692 0.000000
-0.003465 0.004192 0.000000
-0.003145 0.003732 0.000000
-0.002818 0.003312 0.000000
-0.002486 0.002934 0.000000
-0.002148 0.002597 0.000000
-0.001805 0.002303 0.000000
-0.001455 0.002052 0.000000
-0.001099 0.001845 0.000000
-0.000738 0.001683 0.000000
-0.000371 0.001567 0.000000
0.000040 0.001143 0.000000
0.000063 0.000838 0.000000
0.000073 0.000580 0.000000
0.000071 0.000369 0.000000
0.000061 0.000205 0.000000
0.000044 0.000088 0.000000
0.000023 0.000018 0.000000
0.000000 -0.000006 0.000000
-0.000023 0.000018 0.000000
-0.000044 0.000088 0.000000
-0.000061 0.000205 0.000000
-0.000071 0.000369 0.000000
-0.000073 0.000580 0.000000
-0.000063 0.000838 0.000000
-0.000040 0.001143 0.000000
0.000286 0.001219 0.000000
0.000216 0.000919 0.000000
0.000160 0.000664 0.000000
0.000115 0.000457 0.000000
0.000078 0.000295 0.000000
0.000049 0.000179 0.000000
0.000023 0.000110 0.000000
-0.000000 0.000087 0.000000
-0.000023 0.000110 0.000000
-0.000049 0.000179 0.000000
-0.000078 0.000295 0.000000
-0.000115 0.000457 0.000000
-0.000160 0.000664 0.000000
-0.000216 0.000919 0.000000
-0.000286 0.001219 0.000000
0.000607 0.001342 0.000000
0.000491 0.001046 0.000000
0.000389 0.000795 0.000000
0.000298 0.000590 0.000000
0.000216 0.000431 0.000000
0.000140 0.000317 0.000000
0.000069 0.000249 0.000000
0.000000 0.000226 0.000000
-0.000069 0.000249 0.000000
-0.000140 0.000317 0.000000
-0.000216 0.000431 0.000000
-0.000298 0.000590 0.000000
-0.000389 0.000795 0.000000
-0.000491 0.001046 0.000000
-0.000607 0.001342 0.000000
0.000923 0.001509 0.000000
0.000763 0.001218 0.000000
0.000615 0.000972 0.000000
0.000479 0.000770 0.000000
0.000351 0.000613 0.000000
0.000231 0.000501 0.000000
0.000114 0.000434 0.000000
0.000000 0.000411 0.000000
-0.000114 0.000434 0.000000
-0.000231 0.000501 0.000000
-0.000351 0.000613 0.000000
-0.000479 0.000770 0.000000
-0.000615 0.000972 0.000000
-0.000763 0.001218 0.000000
-0.000923 0.001509 0.000000
0.001234 0.001722 0.000000
0.001029 0.001435 0.000000
0.000837 0.001193 0.000000
0.000657 0.000994 0.000000
0.000485 0.000840 0.000000
0.000319 0.000730 0.000000
0.000159 0.000664 0.000000
0.000000 0.000641 0.000000
-0.000159 0.000664 0.000000
-0.000319 0.000730 0.000000
-0.000485 0.000840 0.000000
-0.000657 0.000994 0.000000
-0.000837 0.001193 0.000000
-0.001029 0.001435 0.000000
-0.001234 0.001722 0.000000
0.001540 0.001978 0.000000
0.001292 0.001696 0.000000
0.001056 0.001458 0.000000
0.000832 0.001263 0.000000
0.000616 0.001111 0.000000
0.000407 0.001002 0.000000
0.000202 0.000937 0.000000
0.000000 0.000916 0.000000
-0.000202 0.000937 0.000000
-0.000407 0.001002 0.000000
-0.000616 0.001111 0.000000
-0.000832 0.001263 0.000000
-0.001056 0.001458 0.000000
-0.001292 0.001696 0.000000
-0.001540 0.001978 0.000000
0.001841 0.002277 0.000000
0.001549 0.002000 0.000000
0.001271 0.001766 0.000000
0.001003 0.001574 0.000000
0.000745 0.001425 0.000000
0.000493 0.001318 0.000000
0.000245 0.001255 0.000000
0.000000 0.001233 0.000000
-0.000245 0.001255 0.000000
-0.000493 0.001318 0.000000
-0.000745 0.001425 0.000000
-0.001003 0.001574 0.000000
-0.001271 0.001766 0.000000
-0.001549 0.002000 0.000000
-0.001841 0.002277 0.000000
0.002137 0.002620 0.000000
0.001803 0.002347 0.000000
0.001482 0.002117 0.000000
0.001173 0.001929 0.000000
0.000872 0.001782 0.000000
0.000577 0.001677 0.000000
0.000288 0.001614 0.000000
0.000000 0.001593 0.000000
-0.000288 0.001614 0.000000
-0.000577 0.001677 0.000000
-0.000872 0.001782 0.000000
-0.001173 0.001929 0.000000
-0.001482 0.002117 0.000000
-0.001803 0.002347 0.000000
-0.002137 0.002620 0.000000
0.002428 0.003004 0.000000
0.002052 0.002736 0.000000
0.001690 0.002510 0.000000
0.001339 0.002325 0.000000
0.000996 0.002181 0.000000
0.000660 0.002078 0.000000
0.000329 0.002016 0.000000
0.000000 0.001996 0.000000
-0.000329 0.002016 0.000000
-0.000660 0.002078 0.000000
-0.000996 0.002181 0.000000
-0.001339 0.002325 0.000000
-0.001690 0.002510 0.000000
-0.002052 0.002736 0.000000
-0.002428 0.003004 0.000000
0.002713 0.003429 0.000000
0.002297 0.003166 0.000000
0.001894 0.002944 0.000000
0.001502 0.002762 0.000000
0.001119 0.002621 0.000000
0.000742 0.002520 0.000000
0.000370 0.002459 0.000000
0.000000 0.002439 0.000000
-0.000370 0.002459 0.000000
-0.000742 0.002520 0.000000
-0.001119 0.002621 0.000000
-0.001502 0.002762 0.000000
-0.001894 0.002944 0.000000
-0.002297 0.003166 0.000000
-0.002713 0.003429 0.000000
0.002993 0.003895 0.000000
0.002537 0.003637 0.000000
0.002094 0.003418 0.000000
0.001662 0.003240 0.000000
0.001239 0.003101 0.000000
0.000822 0.003002 0.000000
0.000410 0.002942 0.000000
0.000000 0.002922 0.000000
-0.000410 0.002942 0.000000
-0.000822 0.003002 0.000000
-0.001239 0.003101 0.000000
-0.001662 0.003240 0.000000
-0.002094 0.003418 0.000000
-0.002537 0.003637 0.000000
-0.002993 0.003895 0.000000
0.003268 0.004400 0.000000
0.002773 0.004147 0.000000
0.002291 0.003932 0.000000
0.001819 0.003757 0.000000
0.001357 0.003621 0.000000
0.000901 0.003524 0.000000
0.000449 0.003465 0.000000
0.000000 0.003446 0.000000
-0.000449 0.003465 0.000000
-0.000901 0.003524 0.000000
-0.001357 0.003621 0.000000
-0.001819 0.003757 0.000000
-0.002291 0.003932 0.000000
-0.002773 0.004147 0.000000
-0.003268 0.004400 0.000000
0.003538 0.004944 0.000000
0.003004 0.004696 0.000000
0.002483 0.004486 0.000000
0.001973 0.004314 0.000000
0.001472 0.004180 0.000000
0.000978 0.004084 0.000000
0.000488 0.004027 0.000000
0.000000 0.004008 0.000000
-0.000488 0.004027 0.000000
-0.000978 0.004084 0.000000
-0.001472 0.004180 0.000000
-0.001973 0.004314 0.000000
-0.002483 0.004486 0.000000
-0.003004 0.004696 0.000000
-0.003538 0.004944 0.000000
0.003803 0.005526 0.000000
0.003231 0.005283 0.000000
0.002673 0.005077 0.000000
0.002125 0.004908 0.000000
0.001586 0.004777 0.000000
0.001054 0.004683 0.000000
0.000526 0.004627 0.000000
0.000000 0.004608 0.000000
-0.000526 0.004627 0.000000
-0.001054 0.004683 0.000000
-0.001586 0.004777 0.000000
-0.002125 0.004908 0.000000
-0.002673 0.005077 0.000000
-0.003231 0.005283 0.000000
-0.003803 0.005526 0.000000
0.004063 0.006146 0.000000
0.003454 0.005908 0.000000
0.002858 0.005706 0.000000
0.002273 0.005540 0.000000
0.001697 0.005412 0.000000
0.001128 0.005320 0.000000
0.000563 0.005265 0.000000
0.000000 0.005246 0.000000
-0.000563 0.005265 0.000000
-0.001128 0.005320 0.000000
-0.001697 0.005412 0.000000
-0.002273 0.005540 0.000000
-0.002858 0.005706 0.000000
-0.003454 0.005908 0.000000
-0.004063 0.006146 0.000000
0.004318 0.006803 0.000000
0.003672 0.006569 0.000000
0.003040 0.006371 0.000000
0.002419 0.006209 0.000000
0.001806 0.006083 0.000000
0.001201 0.005993 0.000000
0.000599 0.005939 0.000000
0.000000 0.005921 0.000000
-0.000599 0.005939 0.000000
-0.001201 0.005993 0.000000
-0.001806 0.006083 0.000000
-0.002419 0.006209 0.000000
-0.003040 0.006371 0.000000
-0.003672 0.006569 0.000000
-0.004318 0.006803 0.000000
0.004567 0.007496 0.000000
0.003886 0.007266 0.000000
0.003218 0.007072 0.000000
0.002561 0.006914 0.000000
0.001913 0.006790 0.000000
0.001272 0.006702 0.000000
0.000635 0.006649 0.000000
0.000000 0.006632 0.000000
-0.000635 0.006649 0.000000
-0.001272 0.006702 0.000000
-0.001913 0.006790 0.000000
-0.002561 0.006914 0.000000
-0.003218 0.007072 0.000000
-0.003886 0.007266 0.000000
-0.004567 0.007496 0.000000
0.004811 0.008224 0.000000
0.004095 0.007999 0.000000
0.003393 0.007809 0.000000
0.002701 0.007654 0.000000
0.002018 0.007533 0.000000
0.001342 0.007447 0.000000
0.000670 0.007395 0.000000
0.000000 0.007378 0.000000
-0.000670 0.007395 0.000000
-0.001342 0.007447 0.000000
-0.002018 0.007533 0.000000
-0.002701 0.007654 0.000000
-0.003393 0.007809 0.000000
-0.004095 0.007999 0.000000
-0.004811 0.008224 0.000000
0.005051 0.008986 0.000000
0.004300 0.008766 0.000000
0.003563 0.008580 0.000000
0.002838 0.008428 0.000000
0.002120 0.008310 0.000000
0.001410 0.008226 0.000000
0.000704 0.008175 0.000000
0.000000 0.008158 0.000000
-0.000704 0.008175 0.000000
-0.001410 0.008226 0.000000
-0.002120 0.008310 0.000000
-0.002838 0.008428 0.000000
-0.003563 0.008580 0.000000
-0.004300 0.008766 0.000000
-0.005051 0.008986 0.000000
0.005285 0.009782 0.000000
0.004501 0.009567 0.000000
0.003731 0.009386 0.000000
0.002971 0.009237 0.000000
0.002221 0.009121 0.000000
0.001477 0.009038 0.000000
0.000737 0.008989 0.000000
0.000000 0.008972 0.000000
-0.000737 0.008989 0.000000
-0.001477 0.009038 0.000000
-0.002221 0.009121 0.000000
-0.002971 0.009237 0.000000
-0.003731 0.009386 0.000000
-0.004501 0.009567 0.000000
-0.005285 0.009782 0.000000
0.005513 0.010612 0.000000
0.004697 0.010402 0.000000
0.003894 0.010224 0.000000
0.003102 0.010078 0.000000
0.002319 0.009965 0.000000
0.001542 0.009884 0.000000
0.000770 0.009836 0.000000
0.000000 0.009820 0.000000
-0.000770 0.009836 0.000000
-0.001542 0.009884 0.000000
-0.002319 0.009965 0.000000
-0.003102 0.010078 0.000000
-0.003894 0.010224 0.000000
-0.004697 0.010402 0.000000
-0.005513 0.010612 0.000000
0.005737 0.011473 0.000000
0.004889 0.011268 0.000000
0.004054 0.011094 0.000000
0.003230 0.010952 0.000000
0.002415 0.010841 0.000000
0.001606 0.010762 0.000000
0.000802 0.010715 0.000000
0.000000 0.010699 0.000000
-0.000802 0.010715 0.000000
-0.001606 0.010762 0.000000
-0.002415 0.010841 0.000000
-0.003230 0.010952 0.000000
-0.004054 0.011094 0.000000
-0.004889 0.011268 0.000000
-0.005737 0.011473 0.000000
0.005956 0.012367 0.000000
0.005076 0.012166 0.000000
0.004210 0.011996 0.000000
0.003355 0.011857 0.000000
0.002508 0.011749 0.000000
0.001669 0.011672 0.000000
0.000833 0.011626 0.000000
0.000000 0.011610 0.000000
-0.000833 0.011626 0.000000
-0.001669 0.011672 0.000000
-0.002508 0.011749 0.000000
-0.003355 0.011857 0.000000
-0.004210 0.011996 0.000000
-0.005076 0.012166 0.000000
-0.005956 0.012367 0.000000
0.006169 0.013291 0.000000
0.005259 0.013095 0.000000
0.004363 0.012929 0.000000
0.003477 0.012794 0.000000
0.002600 0.012688 0.000000
0.001730 0.012613 0.000000
0.000864 0.012568 0.000000
0.000000 0.012553 0.000000
-0.000864 0.012568 0.000000
-0.001730 0.012613 0.000000
-0.002600 0.012688 0.000000
-0.003477 0.012794 0.000000
-0.004363 0.012929 0.000000
-0.005259 0.013095 0.000000
-0.006169 0.013291 0.000000
0.006378 0.014245 0.000000
0.005438 0.014054 0.000000
0.004511 0.013892 0.000000
0.003596 0.013760 0.000000
0.002689 0.013657 0.000000
0.001789 0.013584 0.000000
0.000893 0.013540 0.000000
0.000000 0.013525 0.000000
-0.000893 0.013540 0.000000
-0.001789 0.013584 0.000000
-0.002689 0.013657 0.000000
-0.003596 0.013760 0.000000
-0.004511 0.013892 0.000000
-0.005438 0.014054 0.000000
-0.006378 0.014245 0.000000
0.006581 0.015228 0.000000
0.005612 0.015042 0.000000
0.004656 0.014885 0.000000
0.003712 0.014756 0.000000
0.002776 0.014655 0.000000
0.001847 0.014584 0.000000
0.000922 0.014541 0.000000
0.000000 0.014526 0.000000
-0.000922 0.014541 0.000000
-0.001847 0.014584 0.000000
-0.002776 0.014655 0.000000
-0.003712 0.014756 0.000000
-0.004656 0.014885 0.000000
-0.005612 0.015042 0.000000
-0.006581 0.015228 0.000000
0.006779 0.016241 0.000000
0.005782 0.016059 0.000000
0.004798 0.015906 0.000000
0.003825 0.015780 0.000000
0.002861 0.015682 0.000000
0.001904 0.015613 0.000000
0.000951 0.015571 0.000000
0.000000 0.015557 0.000000
-0.000951 0.015571 0.000000
-0.001904 0.015613 0.000000
-0.002861 0.015682 0.000000
-0.003825 0.015780 0.000000
-0.004798 0.015906 0.000000
-0.005782 0.016059 0.000000
-0.006779 0.016241 0.000000
0.006972 0.017281 0.000000
0.005947 0.017104 0.000000
0.004936 0.016955 0.000000
0.003935 0.016832 0.000000
0.002944 0.016737 0.000000
0.001959 0.016669 0.000000
0.000978 0.016628 0.000000
0.000000 0.016615 0.000000
-0.000978 0.016628 0.000000
-0.001959 0.016669 0.000000
-0.002944 0.016737 0.000000
-0.003935 0.016832 0.000000
-0.004936 0.016955 0.000000
-0.005947 0.017104 0.000000
-0.006972 0.017281 0.000000
0.007159 0.018348 0.000000
0.006108 0.018176 0.000000
0.005070 0.018031 0.000000
0.004043 0.017912 0.000000
0.003024 0.017819 0.000000
0.002012 0.017753 0.000000
0.001005 0.017714 0.000000
0.000000 0.017700 0.000000
-0.001005 0.017714 0.000000
-0.002012 0.017753 0.000000
-0.003024 0.017819 0.000000
-0.004043 0.017912 0.000000
-0.005070 0.018031 0.000000
-0.006108 0.018176 0.000000
-0.007159 0.018348 0.000000
0.007342 0.019442 0.000000
0.006264 0.019275 0.000000
0.005200 0.019134 0.000000
0.004147 0.019018 0.000000
0.003102 0.018928 0.000000
0.002065 0.018864 0.000000
0.001031 0.018825 0.000000
0.000000 0.018812 0.000000
-0.001031 0.018825 0.000000
-0.002065 0.018864 0.000000
-0.003102 0.018928 0.000000
-0.004147 0.019018 0.000000
-0.005200 0.019134 0.000000
-0.006264 0.019275 0.000000
-0.007342 0.019442 0.000000
0.007519 0.020562 0.000000
0.006416 0.020399 0.000000
0.005327 0.020262 0.000000
0.004248 0.020150 0.000000
0.003178 0.020062 0.000000
0.002115 0.020000 0.000000
0.001057 0.019962 0.000000
0.000000 0.019950 0.000000
-0.001057 0.019962 0.000000
-0.002115 0.020000 0.000000
-0.003178 0.020062 0.000000
-0.004248 0.020150 0.000000
-0.005327 0.020262 0.000000
-0.006416 0.020399 0.000000
-0.007519 0.020562 0.000000
0.007692 0.021706 0.000000
0.006564 0.021549 0.000000
0.005450 0.021415 0.000000
0.004347 0.021306 0.000000
0.003252 0.021221 0.000000
0.002165 0.021161 0.000000
0.001081 0.021124 0.000000
0.000000 0.021112 0.000000
-0.001081 0.021124 0.000000
-0.002165 0.021161 0.000000
-0.003252 0.021221 0.000000
-0.004347 0.021306 0.000000
-0.005450 0.021415 0.000000
-0.006564 0.021549 0.000000
-0.007692 0.021706 0.000000
0.007859 0.022875 0.000000
0.006707 0.022722 0.000000
0.005569 0.022593 0.000000
0.004442 0.022487 0.000000
0.003324 0.022405 0.000000
0.002212 0.022346 0.000000
0.001105 0.022311 0.000000
0.000000 0.022299 0.000000
-0.001105 0.022311 0.000000
-0.002212 0.022346 0.000000
-0.003324 0.022405 0.000000
-0.004442 0.022487 0.000000
-0.005569 0.022593 0.000000
-0.006707 0.022722 0.000000
-0.007859 0.022875 0.000000
0.008021 0.024067 0.000000
0.006846 0.023919 0.000000
0.005685 0.023794 0.000000
0.004535 0.023691 0.000000
0.003393 0.023612 0.000000
0.002259 0.023555 0.000000
0.001128 0.023521 0.000000
0.000000 0.023509 0.000000
-0.001128 0.023521 0.000000
-0.002259 0.023555 0.000000
-0.003393 0.023612 0.000000
-0.004535 0.023691 0.000000
-0.005685 0.023794 0.000000
-0.006846 0.023919 0.000000
-0.008021 0.024067 0.000000
0.008178 0.025282 0.000000
0.006981 0.025139 0.000000
0.005797 0.025018 0.000000
0.004624 0.024919 0.000000
0.003461 0.024842 0.000000
0.002303 0.024786 0.000000
0.001151 0.024753 0.000000
0.000000 0.024742 0.000000
-0.001151 0.024753 0.000000
-0.002303 0.024786 0.000000
-0.003461 0.024842 0.000000
-0.004624 0.024919 0.000000
-0.005797 0.025018 0.000000
-0.006981 0.025139 0.000000
-0.008178 0.025282 0.000000
0.008329 0.026519 0.000000
0.007111 0.026381 0.000000
0.005905 0.026264 0.000000
0.004711 0.026168 0.000000
0.003526 0.026093 0.000000
0.002347 0.026040 0.000000
0.001172 0.026008 0.000000
0.000000 0.025997 0.000000
-0.001172 0.026008 0.000000
-0.002347 0.026040 0.000000
-0.003526 0.026093 0.000000
-0.004711 0.026168 0.000000
-0.005905 0.026264 0.000000
-0.007111 0.026381 0.000000
-0.008329 0.026519 0.000000
0.008476 0.027778 0.000000
0.007236 0.027644 0.000000
0.006010 0.027531 0.000000
0.004795 0.027438 0.000000
0.003588 0.027366 0.000000
0.002389 0.027315 0.000000
0.001193 0.027284 0.000000
0.000000 0.027274 0.000000
-0.001193 0.027284 0.000000
-0.002389 0.027315 0.000000
-0.003588 0.027366 0.000000
-0.004795 0.027438 0.000000
-0.006010 0.027531 0.000000
-0.007236 0.027644 0.000000
-0.008476 0.027778 0.000000
0.008617 0.029057 0.000000
0.007358 0.028928 0.000000
0.006111 0.028819 0.000000
0.004876 0.028730 0.000000
0.003649 0.028660 0.000000
0.002429 0.028611 0.000000
0.001213 0.028581 0.000000
0.000000 0.028571 0.000000
-0.001213 0.028581 0.000000
-0.002429 0.028611 0.000000
-0.003649 0.028660 0.000000
-0.004876 0.028730 0.000000
-0.006111 0.028819 0.000000
-0.007358 0.028928 0.000000
-0.008617 0.029057 0.000000
0.008754 0.030356 0.000000
0.007475 0.030232 0.000000
0.006209 0.030126 0.000000
0.004954 0.030040 0.000000
0.003708 0.029974 0.000000
0.002468 0.029926 0.000000
0.001233 0.029897 0.000000
0.000000 0.029888 0.000000
-0.001233 0.029897 0.000000
-0.002468 0.029926 0.000000
-0.003708 0.029974 0.000000