# vtk DataFile Version 2.0
cantilever_Q4P1_mix
ASCII
DATASET POLYDATA
POINTS 1105 float
0.000000 -6.000000 0.000000
48.000000 -6.000000 0.000000
48.000000 6.000000 0.000000
0.000000 6.000000 0.000000
0.750000 -6.000000 0.000000
1.500000 -6.000000 0.000000
2.250000 -6.000000 0.000000
3.000000 -6.000000 0.000000
3.750000 -6.000000 0.000000
4.500000 -6.000000 0.000000
5.250000 -6.000000 0.000000
6.000000 -6.000000 0.000000
6.750000 -6.000000 0.000000
7.500000 -6.000000 0.000000
8.250000 -6.000000 0.000000
9.000000 -6.000000 0.000000
9.750000 -6.000000 0.000000
10.500000 -6.000000 0.000000
11.250000 -6.000000 0.000000
12.000000 -6.000000 0.000000
12.750000 -6.000000 0.000000
13.500000 -6.000000 0.000000
14.250000 -6.000000 0.000000
15.000000 -6.000000 0.000000
15.750000 -6.000000 0.000000
16.500000 -6.000000 0.000000
17.250000 -6.000000 0.000000
18.000000 -6.000000 0.000000
18.750000 -6.000000 0.000000
19.500000 -6.000000 0.000000
20.250000 -6.000000 0.000000
21.000000 -6.000000 0.000000
21.750000 -6.000000 0.000000
22.500000 -6.000000 0.000000
23.250000 -6.000000 0.000000
24.000000 -6.000000 0.000000
24.750000 -6.000000 0.000000
25.500000 -6.000000 0.000000
26.250000 -6.000000 0.000000
27.000000 -6.000000 0.000000
27.750000 -6.000000 0.000000
28.500000 -6.000000 0.000000
29.250000 -6.000000 0.000000
30.000000 -6.000000 0.000000
30.750000 -6.000000 0.000000
31.500000 -6.000000 0.000000
32.250000 -6.000000 0.000000
33.000000 -6.000000 0.000000
33.750000 -6.000000 0.000000
34.500000 -6.000000 0.000000
35.250000 -6.000000 0.000000
36.000000 -6.000000 0.000000
36.750000 -6.000000 0.000000
37.500000 -6.000000 0.000000
38.250000 -6.000000 0.000000
39.000000 -6.000000 0.000000
39.750000 -6.000000 0.000000
40.500000 -6.000000 0.000000
41.250000 -6.000000 0.000000
42.000000 -6.000000 0.000000
42.750000 -6.000000 0.000000
43.500000 -6.000000 0.000000
44.250000 -6.000000 0.000000
45.000000 -6.000000 0.000000
45.750000 -6.000000 0.000000
46.500000 -6.000000 0.000000
47.250000 -6.000000 0.000000
48.000000 -5.250000 0.000000
48.000000 -4.500000 0.000000
48.000000 -3.750000 0.000000
48.000000 -3.000000 0.000000
48.000000 -2.250000 0.000000
48.000000 -1.500000 0.000000
48.000000 -0.750000 0.000000
48.000000 -0.000000 0.000000
48.000000 0.750000 0.000000
48.000000 1.500000 0.000000
48.000000 2.250000 0.000000
48.000000 3.000000 0.000000
48.000000 3.750000 0.000000
48.000000 4.500000 0.000000
48.000000 5.250000 0.000000
47.250000 6.000000 0.000000
46.500000 6.000000 0.000000
45.750000 6.000000 0.000000
45.000000 6.000000 0.000000
44.250000 6.000000 0.000000
43.500000 6.000000 0.000000
42.750000 6.000000 0.000000
42.000000 6.000000 0.000000
41.250000 6.000000 0.000000
40.500000 6.000000 0.000000
39.750000 6.000000 0.000000
39.000000 6.000000 0.000000
38.250000 6.000000 0.000000
37.500000 6.000000 0.000000
36.750000 6.000000 0.000000
36.000000 6.000000 0.000000
35.250000 6.000000 0.000000
34.500000 6.000000 0.000000
33.750000 6.000000 0.000000
33.000000 6.000000 0.000000
32.250000 6.000000 0.000000
31.500000 6.000000 0.000000
30.750000 6.000000 0.000000
30.000000 6.000000 0.000000
29.250000 6.000000 0.000000
28.500000 6.000000 0.000000
27.750000 6.000000 0.000000
27.000000 6.000000 0.000000
26.250000 6.000000 0.000000
25.500000 6.000000 0.000000
24.750000 6.000000 0.000000
24.000000 6.000000 0.000000
23.250000 6.000000 0.000000
22.500000 6.000000 0.000000
21.750000 6.000000 0.000000
21.000000 6.000000 0.000000
20.250000 6.000000 0.000000
19.500000 6.000000 0.000000
18.750000 6.000000 0.000000
18.000000 6.000000 0.000000
17.250000 6.000000 0.000000
16.500000 6.000000 0.000000
15.750000 6.000000 0.000000
15.000000 6.000000 0.000000
14.250000 6.000000 0.000000
13.500000 6.000000 0.000000
12.750000 6.000000 0.000000
12.000000 6.000000 0.000000
11.250000 6.000000 0.000000
10.500000 6.000000 0.000000
9.750000 6.000000 0.000000
9.000000 6.000000 0.000000
8.250000 6.000000 0.000000
7.500000 6.000000 0.000000
6.750000 6.000000 0.000000
6.000000 6.000000 0.000000
5.250000 6.000000 0.000000
4.500000 6.000000 0.000000
3.750000 6.000000 0.000000
3.000000 6.000000 0.000000
2.250000 6.000000 0.000000
1.500000 6.000000 0.000000
0.750000 6.000000 0.000000
0.000000 5.250000 0.000000
0.000000 4.500000 0.000000
0.000000 3.750000 0.000000
0.000000 3.000000 0.000000
0.000000 2.250000 0.000000
0.000000 1.500000 0.000000
0.000000 0.750000 0.000000
0.000000 0.000000 0.000000
0.000000 -0.750000 0.000000
0.000000 -1.500000 0.000000
0.000000 -2.250000 0.000000
0.000000 -3.000000 0.000000
0.000000 -3.750000 0.000000
0.000000 -4.500000 0.000000
0.000000 -5.250000 0.000000
0.750000 -5.250000 0.000000
0.750000 -4.500000 0.000000
0.750000 -3.750000 0.000000
0.750000 -3.000000 0.000000
0.750000 -2.250000 0.000000
0.750000 -1.500000 0.000000
0.750000 -0.750000 0.000000
0.750000 0.000000 0.000000
0.750000 0.750000 0.000000
0.750000 1.500000 0.000000
0.750000 2.250000 0.000000
0.750000 3.000000 0.000000
0.750000 3.750000 0.000000
0.750000 4.500000 0.000000
0.750000 5.250000 0.000000
1.500000 -5.250000 0.000000
1.500000 -4.500000 0.000000
1.500000 -3.750000 0.000000
1.500000 -3.000000 0.000000
1.500000 -2.250000 0.000000
1.500000 -1.500000 0.000000
1.500000 -0.750000 0.000000
1.500000 0.000000 0.000000
1.500000 0.750000 0.000000
1.500000 1.500000 0.000000
1.500000 2.250000 0.000000
1.500000 3.000000 0.000000
1.500000 3.750000 0.000000
1.500000 4.500000 0.000000
1.500000 5.250000 0.000000
2.250000 -5.250000 0.000000
2.250000 -4.500000 0.000000
2.250000 -3.750000 0.000000
2.250000 -3.000000 0.000000
2.250000 -2.250000 0.000000
2.250000 -1.500000 0.000000
2.250000 -0.750000 0.000000
2.250000 0.000000 0.000000
2.250000 0.750000 0.000000
2.250000 1.500000 0.000000
2.250000 2.250000 0.000000
2.250000 3.000000 0.000000
2.250000 3.750000 0.000000
2.250000 4.500000 0.000000
2.250000 5.250000 0.000000
3.000000 -5.250000 0.000000
3.000000 -4.500000 0.000000
3.000000 -3.750000 0.000000
3.000000 -3.000000 0.000000
3.000000 -2.250000 0.000000
3.000000 -1.500000 0.000000
3.000000 -0.750000 0.000000
3.000000 0.000000 0.000000
3.000000 0.750000 0.000000
3.000000 1.500000 0.000000
3.000000 2.250000 0.000000
3.000000 3.000000 0.000000
3.000000 3.750000 0.000000
3.000000 4.500000 0.000000
3.000000 5.250000 0.000000
3.750000 -5.250000 0.000000
3.750000 -4.500000 0.000000
3.750000 -3.750000 0.000000
3.750000 -3.000000 0.000000
3.750000 -2.250000 0.000000
3.750000 -1.500000 0.000000
3.750000 -0.750000 0.000000
3.750000 0.000000 0.000000
3.750000 0.750000 0.000000
3.750000 1.500000 0.000000
3.750000 2.250000 0.000000
3.750000 3.000000 0.000000
3.750000 3.750000 0.000000
3.750000 4.500000 0.000000
3.750000 5.250000 0.000000
4.500000 -5.250000 0.000000
4.500000 -4.500000 0.000000
4.500000 -3.750000 0.000000
4.500000 -3.000000 0.000000
4.500000 -2.250000 0.000000
4.500000 -1.500000 0.000000
4.500000 -0.750000 0.000000
4.500000 0.000000 0.000000
4.500000 0.750000 0.000000
4.500000 1.500000 0.000000
4.500000 2.250000 0.000000
4.500000 3.000000 0.000000
4.500000 3.750000 0.000000
4.500000 4.500000 0.000000
4.500000 5.250000 0.000000
5.250000 -5.250000 0.000000
5.250000 -4.500000 0.000000
5.250000 -3.750000 0.000000
5.250000 -3.000000 0.000000
5.250000 -2.250000 0.000000
5.250000 -1.500000 0.000000
5.250000 -0.750000 0.000000
5.250000 0.000000 0.000000
5.250000 0.750000 0.000000
5.250000 1.500000 0.000000
5.250000 2.250000 0.000000
5.250000 3.000000 0.000000
5.250000 3.750000 0.000000
5.250000 4.500000 0.000000
5.250000 5.250000 0.000000
6.000000 -5.250000 0.000000
6.000000 -4.500000 0.000000
6.000000 -3.750000 0.000000
6.000000 -3.000000 0.000000
6.000000 -2.250000 0.000000
6.000000 -1.500000 0.000000
6.000000 -0.750000 0.000000
6.000000 0.000000 0.000000
6.000000 0.750000 0.000000
6.000000 1.500000 0.000000
6.000000 2.250000 0.000000
6.000000 3.000000 0.000000
6.000000 3.750000 0.000000
6.000000 4.500000 0.000000
6.000000 5.250000 0.000000
6.750000 -5.250000 0.000000
6.750000 -4.500000 0.000000
6.750000 -3.750000 0.000000
6.750000 -3.000000 0.000000
6.750000 -2.250000 0.000000
6.750000 -1.500000 0.000000
6.750000 -0.750000 0.000000
6.750000 0.000000 0.000000
6.750000 0.750000 0.000000
6.750000 1.500000 0.000000
6.750000 2.250000 0.000000
6.750000 3.000000 0.000000
6.750000 3.750000 0.000000
6.750000 4.500000 0.000000
6.750000 5.250000 0.000000
7.500000 -5.250000 0.000000
7.500000 -4.500000 0.000000
7.500000 -3.750000 0.000000
7.500000 -3.000000 0.000000
7.500000 -2.250000 0.000000
7.500000 -1.500000 0.000000
7.500000 -0.750000 0.000000
7.500000 0.000000 0.000000
7.500000 0.750000 0.000000
7.500000 1.500000 0.000000
7.500000 2.250000 0.000000
7.500000 3.000000 0.000000
7.500000 3.750000 0.000000
7.500000 4.500000 0.000000
7.500000 5.250000 0.000000
8.250000 -5.250000 0.000000
8.250000 -4.500000 0.000000
8.250000 -3.750000 0.000000
8.250000 -3.000000 0.000000
8.250000 -2.250000 0.000000
8.250000 -1.500000 0.000000
8.250000 -0.750000 0.000000
8.250000 0.000000 0.000000
8.250000 0.750000 0.000000
8.250000 1.500000 0.000000
8.250000 2.250000 0.000000
8.250000 3.000000 0.000000
8.250000 3.750000 0.000000
8.250000 4.500000 0.000000
8.250000 5.250000 0.000000
9.000000 -5.250000 0.000000
9.000000 -4.500000 0.000000
9.000000 -3.750000 0.000000
9.000000 -3.000000 0.000000
9.000000 -2.250000 0.000000
9.000000 -1.500000 0.000000
9.000000 -0.750000 0.000000
9.000000 0.000000 0.000000
9.000000 0.750000 0.000000
9.000000 1.500000 0.000000
9.000000 2.250000 0.000000
9.000000 3.000000 0.000000
9.000000 3.750000 0.000000
9.000000 4.500000 0.000000
9.000000 5.250000 0.000000
9.750000 -5.250000 0.000000
9.750000 -4.500000 0.000000
9.750000 -3.750000 0.000000
9.750000 -3.000000 0.000000
9.750000 -2.250000 0.000000
9.750000 -1.500000 0.000000
9.750000 -0.750000 0.000000
9.750000 0.000000 0.000000
9.750000 0.750000 0.000000
9.750000 1.500000 0.000000
9.750000 2.250000 0.000000
9.750000 3.000000 0.000000
9.750000 3.750000 0.000000
9.750000 4.500000 0.000000
9.750000 5.250000 0.000000
10.500000 -5.250000 0.000000
[...]
POINT_DATA 1105
VECTORS U float
0.000000 0.000008 0.000000
0.011769 0.066160 0.000000
-0.011769 0.066160 0.000000
-0.000000 0.000008 0.000000
0.000335 0.000815 0.000000
0.000680 0.001028 0.000000
0.000958 0.001286 0.000000
0.001275 0.001497 0.000000
0.001591 0.001743 0.000000
0.001913 0.002012 0.000000
0.002239 0.002320 0.000000
0.002561 0.002666 0.000000
0.002884 0.003052 0.000000
0.003200 0.003478 0.000000
0.003514 0.003943 0.000000
0.003821 0.004448 0.000000
0.004124 0.004991 0.000000
0.004420 0.005571 0.000000
0.004711 0.006189 0.000000
0.004996 0.006842 0.000000
0.005275 0.007531 0.000000
0.005548 0.008254 0.000000
0.005816 0.009012 0.000000
0.006077 0.009802 0.000000
0.006333 0.010625 0.000000
0.006583 0.011479 0.000000
0.006827 0.012364 0.000000
0.007065 0.013279 0.000000
0.007297 0.014224 0.000000
0.007524 0.015197 0.000000
0.007744 0.016199 0.000000
0.007959 0.017227 0.000000
0.008167 0.018282 0.000000
0.008370 0.019362 0.000000
0.008567 0.020468 0.000000
0.008758 0.021598 0.000000
0.008943 0.022751 0.000000
0.009122 0.023927 0.000000
0.009296 0.025125 0.000000
0.009463 0.026345 0.000000
0.009625 0.027585 0.000000
0.009781 0.028845 0.000000
0.009931 0.030124 0.000000
0.010075 0.031421 0.000000
0.010213 0.032736 0.000000
0.010345 0.034068 0.000000
0.010471 0.035416 0.000000
0.010592 0.036779 0.000000
0.010707 0.038158 0.000000
0.010815 0.039550 0.000000
0.010918 0.040955 0.000000
0.011015 0.042373 0.000000
0.011106 0.043802 0.000000
0.011191 0.045243 0.000000
0.011271 0.046694 0.000000
0.011344 0.048154 0.000000
0.011412 0.049624 0.000000
0.011474 0.051101 0.000000
0.011529 0.052586 0.000000
0.011579 0.054077 0.000000
0.011624 0.055574 0.000000
0.011662 0.057077 0.000000
0.011694 0.058583 0.000000
0.011721 0.060094 0.000000
0.011741 0.061607 0.000000
0.011756 0.063123 0.000000
0.011765 0.064640 0.000000
0.010258 0.066158 0.000000
0.008764 0.066158 0.000000
0.007283 0.066158 0.000000
0.005813 0.066157 0.000000
0.004352 0.066157 0.000000
0.002898 0.066157 0.000000
0.001448 0.066157 0.000000
0.000000 0.066157 0.000000
-0.001448 0.066157 0.000000
-0.002898 0.066157 0.000000
-0.004352 0.066157 0.000000
-0.005813 0.066157 0.000000
-0.007283 0.066158 0.000000
-0.008764 0.066158 0.000000
-0.010258 0.066158 0.000000
-0.011765 0.064640 0.000000
-0.011756 0.063123 0.000000
-0.011741 0.061607 0.000000
-0.011721 0.060094 0.000000
-0.011694 0.058583 0.000000
-0.011662 0.057077 0.000000
-0.011624 0.055574 0.000000
-0.011579 0.054077 0.000000
-0.011529 0.052586 0.000000
-0.011474 0.051101 0.000000
-0.011412 0.049624 0.000000
-0.011344 0.048154 0.000000
-0.011271 0.046694 0.000000
-0.011191 0.045243 0.000000
-0.011106 0.043802 0.000000
-0.011015 0.042373 0.000000
-0.010918 0.040955 0.000000
-0.010815 0.039550 0.000000
-0.010707 0.038158 0.000000
-0.010592 0.036779 0.000000
-0.010471 0.035416 0.000000
-0.010345 0.034068 0.000000
-0.010213 0.032736 0.000000
-0.010075 0.031421 0.000000
-0.009931 0.030124 0.000000
-0.009781 0.028845 0.000000
-0.009625 0.027585 0.000000
-0.009463 0.026345 0.000000
-0.009296 0.025125 0.000000
-0.009122 0.023927 0.000000
-0.008943 0.022751 0.000000
-0.008758 0.021598 0.000000
-0.008567 0.020468 0.000000
-0.008370 0.019362 0.000000
-0.008167 0.018282 0.000000
-0.007959 0.017227 0.000000
-0.007744 0.016199 0.000000
-0.007524 0.015197 0.000000
-0.007297 0.014224 0.000000
-0.007065 0.013279 0.000000
-0.006827 0.012364 0.000000
-0.006583 0.011479 0.000000
-0.006333 0.010625 0.000000
-0.006077 0.009802 0.000000
-0.005816 0.009012 0.000000
-0.005548 0.008254 0.000000
-0.005275 0.007531 0.000000
-0.004996 0.006842 0.000000
-0.004711 0.006189 0.000000
-0.004420 0.005571 0.000000
-0.004124 0.004991 0.000000
-0.003821 0.004448 0.000000
-0.003514 0.003943 0.000000
-0.003200 0.003478 0.000000
-0.002884 0.003052 0.000000
-0.002561 0.002666 0.000000
-0.002239 0.002320 0.000000
-0.001913 0.002012 0.000000
-0.001591 0.001743 0.000000
-0.001275 0.001497 0.000000
-0.000958 0.001286 0.000000
-0.000680 0.001028 0.000000
-0.000335 0.000815 0.000000
0.000000 -0.000008 0.000000
-0.000000 0.000008 0.000000
0.000000 -0.000008 0.000000
-0.000000 0.000008 0.000000
0.000000 -0.000008 0.000000
-0.000000 0.000008 0.000000
0.000000 -0.000008 0.000000
-0.000000 0.000008 0.000000
-0.000000 -0.000008 0.000000
0.000000 0.000008 0.000000
-0.000000 -0.000008 0.000000
0.000000 0.000008 0.000000
-0.000000 -0.000008 0.000000
0.000000 0.000008 0.000000
-0.000000 -0.000008 0.000000
0.000094 0.000400 0.000000
0.000092 0.000198 0.000000
0.000042 0.000080 0.000000
0.000043 -0.000020 0.000000
0.000020 -0.000068 0.000000
0.000018 -0.000122 0.000000
0.000006 -0.000131 0.000000
-0.000000 -0.000152 0.000000
-0.000006 -0.000131 0.000000
-0.000018 -0.000122 0.000000
-0.000020 -0.000068 0.000000
-0.000043 -0.000020 0.000000
-0.000042 0.000080 0.000000
-0.000092 0.000198 0.000000
-0.000094 0.000400 0.000000
0.000433 0.000759 0.000000
0.000264 0.000449 0.000000
0.000203 0.000234 0.000000
0.000131 0.000084 0.000000
0.000099 -0.000035 0.000000
0.000057 -0.000099 0.000000
0.000030 -0.000152 0.000000
-0.000000 -0.000155 0.000000
-0.000030 -0.000152 0.000000
-0.000057 -0.000099 0.000000
-0.000099 -0.000035 0.000000
-0.000131 0.000084 0.000000
-0.000203 0.000234 0.000000
-0.000264 0.000449 0.000000
-0.000433 0.000759 0.000000
0.000739 0.000970 0.000000
0.000547 0.000691 0.000000
0.000389 0.000438 0.000000
0.000291 0.000242 0.000000
0.000196 0.000104 0.000000
0.000129 -0.000001 0.000000
0.000060 -0.000050 0.000000
-0.000000 -0.000078 0.000000
-0.000060 -0.000050 0.000000
-0.000129 -0.000001 0.000000
-0.000196 0.000104 0.000000
-0.000291 0.000242 0.000000
-0.000389 0.000438 0.000000
-0.000547 0.000691 0.000000
-0.000739 0.000970 0.000000
0.001040 0.001197 0.000000
0.000813 0.000910 0.000000
0.000625 0.000662 0.000000
0.000458 0.000455 0.000000
0.000330 0.000293 0.000000
0.000207 0.000186 0.000000
0.000103 0.000114 0.000000
-0.000000 0.000099 0.000000
-0.000103 0.000114 0.000000
-0.000207 0.000186 0.000000
-0.000330 0.000293 0.000000
-0.000458 0.000455 0.000000
-0.000625 0.000662 0.000000
-0.000813 0.000910 0.000000
-0.001040 0.001197 0.000000
0.001333 0.001434 0.000000
0.001084 0.001156 0.000000
0.000849 0.000909 0.000000
0.000648 0.000701 0.000000
0.000462 0.000540 0.000000
0.000301 0.000420 0.000000
0.000147 0.000354 0.000000
-0.000000 0.000326 0.000000
-0.000147 0.000354 0.000000
-0.000301 0.000420 0.000000
-0.000462 0.000540 0.000000
-0.000648 0.000701 0.000000
-0.000849 0.000909 0.000000
-0.001084 0.001156 0.000000
-0.001333 0.001434 0.000000
0.001626 0.001706 0.000000
0.001342 0.001431 0.000000
0.001079 0.001190 0.000000
0.000829 0.000988 0.000000
0.000606 0.000825 0.000000
0.000393 0.000711 0.000000
0.000195 0.000637 0.000000
-0.000000 0.000617 0.000000
-0.000195 0.000637 0.000000
-0.000393 0.000711 0.000000
-0.000606 0.000825 0.000000
-0.000829 0.000988 0.000000
-0.001079 0.001190 0.000000
-0.001342 0.001431 0.000000
-0.001626 0.001706 0.000000
0.001914 0.002014 0.000000
0.001600 0.001743 0.000000
0.001296 0.001509 0.000000
0.001012 0.001311 0.000000
0.000741 0.001155 0.000000
0.000487 0.001040 0.000000
0.000240 0.000973 0.000000
-0.000000 0.000947 0.000000
-0.000240 0.000973 0.000000
-0.000487 0.001040 0.000000
-0.000741 0.001155 0.000000
-0.001012 0.001311 0.000000
-0.001296 0.001509 0.000000
-0.001600 0.001743 0.000000
-0.001914 0.002014 0.000000
0.002201 0.002362 0.000000
0.001849 0.002097 0.000000
0.001512 0.001867 0.000000
0.001186 0.001676 0.000000
0.000876 0.001523 0.000000
0.000576 0.001414 0.000000
0.000286 0.001346 0.000000
-0.000000 0.001325 0.000000
-0.000286 0.001346 0.000000
-0.000576 0.001414 0.000000
-0.000876 0.001523 0.000000
-0.001186 0.001676 0.000000
-0.001512 0.001867 0.000000
-0.001849 0.002097 0.000000
-0.002201 0.002362 0.000000
0.002483 0.002752 0.000000
0.002096 0.002490 0.000000
0.001718 0.002266 0.000000
0.001357 0.002079 0.000000
0.001004 0.001933 0.000000
0.000664 0.001825 0.000000
0.000330 0.001763 0.000000
-0.000000 0.001739 0.000000
-0.000330 0.001763 0.000000
-0.000664 0.001825 0.000000
-0.001004 0.001933 0.000000
-0.001357 0.002079 0.000000
-0.001718 0.002266 0.000000
-0.002096 0.002490 0.000000
-0.002483 0.002752 0.000000
0.002762 0.003182 0.000000
0.002335 0.002925 0.000000
0.001923 0.002705 0.000000
0.001520 0.002524 0.000000
0.001130 0.002380 0.000000
0.000748 0.002279 0.000000
0.000372 0.002215 0.000000
-0.000000 0.002196 0.000000
-0.000372 0.002215 0.000000
-0.000748 0.002279 0.000000
-0.001130 0.002380 0.000000
-0.001520 0.002524 0.000000
-0.001923 0.002705 0.000000
-0.002335 0.002925 0.000000
-0.002762 0.003182 0.000000
0.003035 0.003652 0.000000
0.002572 0.003399 0.000000
0.002120 0.003185 0.000000
0.001681 0.003007 0.000000
0.001251 0.002869 0.000000
0.000829 0.002768 0.000000
0.000413 0.002709 0.000000
-0.000000 0.002688 0.000000
-0.000413 0.002709 0.000000
-0.000829 0.002768 0.000000
-0.001251 0.002869 0.000000
-0.001681 0.003007 0.000000
-0.002120 0.003185 0.000000
-0.002572 0.003399 0.000000
-0.003035 0.003652 0.000000
0.003305 0.004162 0.000000
0.002803 0.003914 0.000000
0.002315 0.003703 0.000000
0.001837 0.003530 0.000000
0.001369 0.003394 0.000000
0.000908 0.003298 0.000000
0.000453 0.003239 0.000000
-0.000000 0.003220 0.000000
-0.000453 0.003239 0.000000
-0.000908 0.003298 0.000000
-0.001369 0.003394 0.000000
-0.001837 0.003530 0.000000
-0.002315 0.003703 0.000000
-0.002803 0.003914 0.000000
-0.003305 0.004162 0.000000
0.003569 0.004710 0.000000
0.003031 0.004466 0.000000
0.002504 0.004260 0.000000
0.001990 0.004091 0.000000
0.001484 0.003959 0.000000
0.000985 0.003864 0.000000
0.000491 0.003807 0.000000
-0.000000 0.003788 0.000000
-0.000491 0.003807 0.000000
-0.000985 0.003864 0.000000
-0.001484 0.003959 0.000000
-0.001990 0.004091 0.000000
-0.002504 0.004260 0.000000
-0.003031 0.004466 0.000000
-0.003569 0.004710 0.000000
0.003829 0.005296 0.000000
0.003253 0.005057 0.000000
0.002691 0.004855 0.000000
0.002138 0.004689 0.000000
0.001596 0.004560 0.000000
0.001060 0.004468 0.000000
0.000529 0.004412 0.000000
-0.000000 0.004394 0.000000
-0.000529 0.004412 0.000000
-0.001060 0.004468 0.000000
-0.001596 0.004560 0.000000
-0.002138 0.004689 0.000000
-0.002691 0.004855 0.000000
-0.003253 0.005057 0.000000
-0.003829 0.005296 0.000000
0.004083 0.005919 0.000000
0.003472 0.005685 0.000000
0.002872 0.005487 0.000000
0.002285 0.005324 0.000000
0.001705 0.005198 0.000000
0.001133 0.005107 0.000000
0.000565 0.005054 0.000000
-0.000000 0.005035 0.000000
-0.000565 0.005054 0.000000
-0.001133 0.005107 0.000000
-0.001705 0.005198 0.000000
-0.002285 0.005324 0.000000
-0.002872 0.005487 0.000000
-0.003472 0.005685 0.000000
-0.004083 0.005919 0.000000
0.004333 0.006578 0.000000
0.003685 0.006348 0.000000
0.003051 0.006154 0.000000
0.002427 0.005996 0.000000
0.001813 0.005872 0.000000
0.001205 0.005784 0.000000
0.000601 0.005730 0.000000
-0.000000 0.005713 0.000000
-0.000601 0.005730 0.000000
-0.001205 0.005784 0.000000
-0.001813 0.005872 0.000000
-0.002427 0.005996 0.000000
-0.003051 0.006154 0.000000
-0.003685 0.006348 0.000000
-0.004333 0.006578 0.000000
0.004577 0.007272 0.000000
0.003895 0.007047 0.000000
0.003225 0.006858 0.000000
0.002567 0.006702 0.000000
0.001917 0.006581 0.000000
0.001275 0.006495 0.000000
0.000636 0.006443 0.000000
-0.000000 0.006425 0.000000
-0.000636 0.006443 0.000000
-0.001275 0.006495 0.000000
-0.001917 0.006581 0.000000
-0.002567 0.006702 0.000000
-0.003225 0.006858 0.000000
-0.003895 0.007047 0.000000
-0.004577 0.007272 0.000000
0.004817 0.008001 0.000000
0.004100 0.007781 0.000000
0.003396 0.007595 0.000000
0.002704 0.007443 0.000000
0.002020 0.007325 0.000000
0.001343 0.007240 0.000000
0.000670 0.007189 0.000000
-0.000000 0.007173 0.000000
-0.000670 0.007189 0.000000
-0.001343 0.007240 0.000000
-0.002020 0.007325 0.000000
-0.002704 0.007443 0.000000
-0.003396 0.007595 0.000000
-0.004100 0.007781 0.000000
-0.004817 0.008001 0.000000
0.005050 0.008764 0.000000
0.004300 0.008549 0.000000
0.003563 0.008367 0.000000
0.002838 0.008218 0.000000
0.002120 0.008102 0.000000
0.001410 0.008020 0.000000
0.000704 0.007970 0.000000
-0.000000 0.007953 0.000000
-0.000704 0.007970 0.000000
-0.001410 0.008020 0.000000
-0.002120 0.008102 0.000000
-0.002838 0.008218 0.000000
-0.003563 0.008367 0.000000
-0.004300 0.008549 0.000000
-0.005050 0.008764 0.000000
0.005279 0.009560 0.000000
0.004496 0.009349 0.000000
0.003727 0.009172 0.000000
0.002968 0.009026 0.000000
0.002219 0.008913 0.000000
0.001475 0.008832 0.000000
0.000737 0.008784 0.000000
-0.000000 0.008768 0.000000
-0.000737 0.008784 0.000000
-0.001475 0.008832 0.000000
-0.002219 0.008913 0.000000
-0.002968 0.009026 0.000000
-0.003727 0.009172 0.000000
-0.004496 0.009349 0.000000
-0.005279 0.009560 0.000000
0.005503 0.010388 0.000000
0.004688 0.010182 0.000000
0.003887 0.010009 0.000000
0.003096 0.009866 0.000000
0.002314 0.009756 0.000000
0.001539 0.009677 0.000000
0.000769 0.009630 0.000000
-0.000000 0.009614 0.000000
-0.000769 0.009630 0.000000
-0.001539 0.009677 0.000000
-0.002314 0.009756 0.000000
-0.003096 0.009866 0.000000
-0.003887 0.010009 0.000000
-0.004688 0.010182 0.000000
-0.005503 0.010388 0.000000
0.005722 0.011247 0.000000
0.004876 0.011047 0.000000
0.004043 0.010877 0.000000
0.003221 0.010738 0.000000
0.002408 0.010630 0.000000
0.001602 0.010553 0.000000
0.000800 0.010507 0.000000
-0.000000 0.010492 0.000000
-0.000800 0.010507 0.000000
-0.001602 0.010553 0.000000
-0.002408 0.010630 0.000000
-0.003221 0.010738 0.000000
-0.004043 0.010877 0.000000
-0.004876 0.011047 0.000000
-0.005722 0.011247 0.000000
0.005935 0.012138 0.000000
0.005059 0.011942 0.000000
0.004195 0.011777 0.000000
0.003343 0.011641 0.000000
0.002500 0.011536 0.000000
0.001663 0.011460 0.000000
0.000830 0.011415 0.000000
-0.000000 0.011400 0.000000
-0.000830 0.011415 0.000000
-0.001663 0.011460 0.000000
-0.002500 0.011536 0.000000
-0.003343 0.011641 0.000000
-0.004195 0.011777 0.000000
-0.005059 0.011942 0.000000
-0.005935 0.012138 0.000000
0.006143 0.013059 0.000000
0.005237 0.012868 0.000000
0.004344 0.012706 0.000000
0.003462 0.012574 0.000000
0.002589 0.012471 0.000000
0.001722 0.012398 0.000000
0.000860 0.012354 0.000000
-0.000000 0.012339 0.000000
-0.000860 0.012354 0.000000
-0.001722 0.012398 0.000000
-0.002589 0.012471 0.000000
-0.003462 0.012574 0.000000
-0.004344 0.012706 0.000000
-0.005237 0.012868 0.000000
-0.006143 0.013059 0.000000
0.006347 0.014009 0.000000
0.005411 0.013823 0.000000
0.004489 0.013665 0.000000
0.003578 0.013536 0.000000
0.002676 0.013436 0.000000
0.001780 0.013364 0.000000
0.000889 0.013321 0.000000
-0.000000 0.013307 0.000000
-0.000889 0.013321 0.000000
-0.001780 0.013364 0.000000
-0.002676 0.013436 0.000000
-0.003578 0.013536 0.000000
-0.004489 0.013665 0.000000
-0.005411 0.013823 0.000000
-0.006347 0.014009 0.000000
0.006545 0.014988 0.000000
0.005581 0.014806 0.000000
0.004631 0.014653 0.000000
0.003691 0.014527 0.000000
0.002761 0.014429 0.000000
0.001837 0.014360 0.000000
0.000917 0.014318 0.000000
-0.000000 0.014304 0.000000
-0.000917 0.014318 0.000000
-0.001837 0.014360 0.000000
-0.002761 0.014429 0.000000
-0.003691 0.014527 0.000000
-0.004631 0.014653 0.000000
-0.005581 0.014806 0.000000
-0.006545 0.014988 0.000000
0.006737 0.015995 0.000000
0.005746 0.015818 0.000000
0.004768 0.015668 0.000000
0.003801 0.015546 0.000000
0.002843 0.015451 0.000000
0.001892 0.015383 0.000000
0.000945 0.015342 0.000000
-0.000000 0.015329 0.000000
-0.000945 0.015342 0.000000
-0.001892 0.015383 0.000000
-0.002843 0.015451 0.000000
-0.003801 0.015546 0.000000
-0.004768 0.015668 0.000000
-0.005746 0.015818 0.000000
-0.006737 0.015995 0.000000
0.006925 0.017029 0.000000
0.005907 0.016857 0.000000
0.004902 0.016711 0.000000
0.003909 0.016592 0.000000
0.002924 0.016500 0.000000
0.001946 0.016433 0.000000
0.000972 0.016394 0.000000
-0.000000 0.016381 0.000000
-0.000972 0.016394 0.000000
-0.001946 0.016433 0.000000
-0.002924 0.016500 0.000000
-0.003909 0.016592 0.000000
-0.004902 0.016711 0.000000
-0.005907 0.016857 0.000000
-0.006925 0.017029 0.000000
0.007108 0.018089 0.000000
0.006064 0.017922 0.000000
0.005033 0.017780 0.000000
0.004013 0.017665 0.000000
0.003002 0.017575 0.000000
0.001998 0.017510 0.000000
0.000998 0.017472 0.000000
-0.000000 0.017459 0.000000
-0.000998 0.017472 0.000000
-0.001998 0.017510 0.000000
-0.003002 0.017575 0.000000
-0.004013 0.017665 0.000000
-0.005033 0.017780 0.000000
-0.006064 0.017922 0.000000
-0.007108 0.018089 0.000000
0.007285 0.019175 0.000000
0.006216 0.019013 0.000000
0.005160 0.018875 0.000000
0.004114 0.018763 0.000000
0.003078 0.018675 0.000000
0.002048 0.018613 0.000000
0.001023 0.018575 0.000000
-0.000000 0.018563 0.000000
-0.001023 0.018575 0.000000
-0.002048 0.018613 0.000000
-0.003078 0.018675 0.000000
-0.004114 0.018763 0.000000
-0.005160 0.018875 0.000000
-0.006216 0.019013 0.000000
-0.007285 0.019175 0.000000
0.007457 0.020286 0.000000
0.006363 0.020129 0.000000
0.005283 0.019995 0.000000
0.004213 0.019886 0.000000
0.003152 0.019801 0.000000
0.002098 0.019741 0.000000
0.001048 0.019704 0.000000
-0.000000 0.019692 0.000000
-0.001048 0.019704 0.000000
-0.002098 0.019741 0.000000
-0.003152 0.019801 0.000000
-0.004213 0.019886 0.000000
-0.005283 0.019995 0.000000
-0.006363 0.020129 0.000000
-0.007457 0.020286 0.000000
0.007625 0.021421 0.000000
0.006507 0.021269 0.000000
0.005402 0.021139 0.000000
0.004308 0.021034 0.000000
0.003224 0.020951 0.000000
0.002145 0.020892 0.000000
0.001072 0.020857 0.000000
-0.000000 0.020845 0.000000
-0.001072 0.020857 0.000000
-0.002145 0.020892 0.000000
-0.003224 0.020951 0.000000
-0.004308 0.021034 0.000000
-0.005402 0.021139 0.000000
-0.006507 0.021269 0.000000
-0.007625 0.021421 0.000000
0.007787 0.022580 0.000000
0.006646 0.022432 0.000000
0.005518 0.022307 0.000000
0.004401 0.022204 0.000000
0.003293 0.022125 0.000000
0.002192 0.022068 0.000000
0.001095 0.022034 0.000000
0.000000 0.022022 0.000000
-0.001095 0.022034 0.000000
-0.002192 0.022068 0.000000
-0.003293 0.022125 0.000000
-0.004401 0.022204 0.000000
-0.005518 0.022307 0.000000
-0.006646 0.022432 0.000000
-0.007787 0.022580 0.000000
0.007944 0.023762 0.000000
0.006780 0.023619 0.000000
0.005630 0.023497 0.000000
0.004491 0.023398 0.000000
0.003360 0.023321 0.000000
0.002237 0.023266 0.000000
0.001117 0.023233 0.000000
0.000000 0.023222 0.000000
-0.001117 0.023233 0.000000
-0.002237 0.023266 0.000000
-0.003360 0.023321 0.000000
-0.004491 0.023398 0.000000
-0.005630 0.023497 0.000000
-0.006780 0.023619 0.000000
-0.007944 0.023762 0.000000
0.008095 0.024966 0.000000
0.006910 0.024827 0.000000
0.005738 0.024710 0.000000
0.004577 0.024614 0.000000
0.003425 0.024539 0.000000
0.002280 0.024486 0.000000
0.001139 0.024454 0.000000
0.000000 0.024444 0.000000
-0.001139 0.024454 0.000000
-0.002280 0.024486 0.000000
-0.003425 0.024539 0.000000
-0.004577 0.024614 0.000000
-0.005738 0.024710 0.000000
-0.006910 0.024827 0.000000
-0.008095 0.024966 0.000000
0.008242 0.026191 0.000000
0.007036 0.026057 0.000000
0.005843 0.025944 0.000000
0.004661 0.025851 0.000000
0.003488 0.025779 0.000000
0.002322 0.025728 0.000000
0.001160 0.025697 0.000000
0.000000 0.025686 0.000000
-0.001160 0.025697 0.000000
-0.002322 0.025728 0.000000
-0.003488 0.025779 0.000000
-0.004661 0.025851 0.000000
-0.005843 0.025944 0.000000
-0.007036 0.026057 0.000000
-0.008242 0.026191 0.000000
0.008383 0.027436 0.000000
0.007157 0.027307 0.000000
0.005944 0.027198 0.000000
0.004742 0.027109 0.000000
0.003549 0.027039 0.000000
0.002362 0.026990 0.000000
0.001180 0.026960 0.000000
0.000000 0.026950 0.000000
-0.001180 0.026960 0.000000
-0.002362 0.026990 0.000000
-0.003549 0.027039 0.000000
-0.004742 0.027109 0.000000
-0.005944 0.027198 0.000000
-0.007157 0.027307 0.000000
-0.008383 0.027436 0.000000
0.008520 0.028701 0.000000
0.007274 0.028577 0.000000
0.006041 0.028472 0.000000
0.004820 0.028386 0.000000
0.003607 0.028319 0.000000
0.002401 0.028272 0.000000
0.001199 0.028243 0.000000
0.000000 0.028233 0.000000
-0.001199 0.028243 0.000000