# vtk DataFile Version 2.0
patchtest_tri3_mix
ASCII
DATASET POLYDATA
POINTS 29 float
0.000000 -0.500000 0.000000
1.000000 -0.500000 0.000000
1.000000 0.500000 0.000000
0.000000 0.500000 0.000000
0.250000 -0.500000 0.000000
0.500000 -0.500000 0.000000
0.750000 -0.500000 0.000000
1.000000 -0.250000 0.000000
1.000000 -0.000000 0.000000
1.000000 0.250000 0.000000
0.750000 0.500000 0.000000
0.500000 0.500000 0.000000
0.250000 0.500000 0.000000
0.000000 0.250000 0.000000
0.000000 0.000000 0.000000
0.000000 -0.250000 0.000000
0.694212 -0.302352 0.000000
0.183578 0.320888 0.000000
0.804911 0.325802 0.000000
0.201490 0.109593 0.000000
0.390868 0.280137 0.000000
0.802249 -0.132642 0.000000
0.414625 0.041857 0.000000
0.250357 -0.320674 0.000000
0.611105 -0.017989 0.000000
0.472594 -0.225674 0.000000
0.598947 0.249229 0.000000
0.226939 -0.116030 0.000000
0.797019 0.108038 0.000000
POLYGONS 40 160
3 15 0 23
3 14 15 27
3 23 27 15
3 25 23 5
3 14 27 19
3 25 27 23
3 23 4 5
3 23 0 4
3 22 27 25
3 13 17 3
3 17 13 19
3 3 17 12
3 19 22 20
3 22 19 27
3 12 20 11
3 12 17 20
3 20 22 26
3 20 17 19
3 13 14 19
3 22 25 24
3 16 24 25
3 16 5 6
3 24 16 21
3 26 22 24
3 6 1 7
3 24 21 28
3 21 16 7
3 7 16 6
3 8 21 7
3 10 26 18
3 28 26 24
3 10 11 26
3 26 28 18
3 11 20 26
3 9 18 28
3 18 2 10
3 2 18 9
3 9 28 8
3 28 21 8
3 25 5 16
POINT_DATA 29
SCALARS P float 1
LOOKUP_TABLE default
550.934488
557.811050
457.037279
-1655.199368
3345.779867
973.270063
369.467704
-1226.131372
1421.868620
-1829.324880
-3335.276210
834.294923
-4001.900703
390.993258
10.688068
-154.965111
-1611.779869
6542.039925
5980.073287
-8215.262994
2170.846730
1787.256604
-1474.811161
-6860.921266
1932.892258
-28.867360
-1969.335425
8458.627806
-3633.159694
