# vtk DataFile Version 2.0
cantilever_quad8_mix
ASCII
DATASET POLYDATA
POINTS 496 float
0.000000 0.000000 0.000000
48.000000 44.000000 0.000000
48.000000 60.000000 0.000000
0.000000 44.000000 0.000000
1.600000 1.466667 0.000000
3.200000 2.933333 0.000000
4.800000 4.400000 0.000000
6.400000 5.866667 0.000000
8.000000 7.333333 0.000000
9.600000 8.800000 0.000000
11.200000 10.266667 0.000000
12.800000 11.733333 0.000000
14.400000 13.200000 0.000000
16.000000 14.666667 0.000000
17.600000 16.133333 0.000000
19.200000 17.600000 0.000000
20.800000 19.066667 0.000000
22.400000 20.533333 0.000000
24.000000 22.000000 0.000000
25.600000 23.466667 0.000000
27.200000 24.933333 0.000000
28.800000 26.400000 0.000000
30.400000 27.866667 0.000000
32.000000 29.333333 0.000000
33.600000 30.800000 0.000000
35.200000 32.266667 0.000000
36.800000 33.733333 0.000000
38.400000 35.200000 0.000000
40.000000 36.666667 0.000000
41.600000 38.133333 0.000000
43.200000 39.600000 0.000000
44.800000 41.066667 0.000000
46.400000 42.533333 0.000000
48.000000 45.066667 0.000000
48.000000 46.133333 0.000000
48.000000 47.200000 0.000000
48.000000 48.266667 0.000000
48.000000 49.333333 0.000000
48.000000 50.400000 0.000000
48.000000 51.466667 0.000000
48.000000 52.533333 0.000000
48.000000 53.600000 0.000000
48.000000 54.666667 0.000000
48.000000 55.733333 0.000000
48.000000 56.800000 0.000000
48.000000 57.866667 0.000000
48.000000 58.933333 0.000000
46.400000 59.466667 0.000000
44.800000 58.933333 0.000000
43.200000 58.400000 0.000000
41.600000 57.866667 0.000000
40.000000 57.333333 0.000000
38.400000 56.800000 0.000000
36.800000 56.266667 0.000000
35.200000 55.733333 0.000000
33.600000 55.200000 0.000000
32.000000 54.666667 0.000000
30.400000 54.133333 0.000000
28.800000 53.600000 0.000000
27.200000 53.066667 0.000000
25.600000 52.533333 0.000000
24.000000 52.000000 0.000000
22.400000 51.466667 0.000000
20.800000 50.933333 0.000000
19.200000 50.400000 0.000000
17.600000 49.866667 0.000000
16.000000 49.333333 0.000000
14.400000 48.800000 0.000000
12.800000 48.266667 0.000000
11.200000 47.733333 0.000000
9.600000 47.200000 0.000000
8.000000 46.666667 0.000000
6.400000 46.133333 0.000000
4.800000 45.600000 0.000000
3.200000 45.066667 0.000000
1.600000 44.533333 0.000000
0.000000 41.066667 0.000000
0.000000 38.133333 0.000000
0.000000 35.200000 0.000000
0.000000 32.266667 0.000000
0.000000 29.333333 0.000000
0.000000 26.400000 0.000000
0.000000 23.466667 0.000000
0.000000 20.533333 0.000000
0.000000 17.600000 0.000000
0.000000 14.666667 0.000000
0.000000 11.733333 0.000000
0.000000 8.800000 0.000000
0.000000 5.866667 0.000000
0.000000 2.933333 0.000000
1.600000 4.337778 0.000000
1.600000 7.208889 0.000000
1.600000 10.080000 0.000000
1.600000 12.951111 0.000000
1.600000 15.822222 0.000000
1.600000 18.693333 0.000000
1.600000 21.564444 0.000000
1.600000 24.435556 0.000000
1.600000 27.306667 0.000000
1.600000 30.177778 0.000000
1.600000 33.048889 0.000000
1.600000 35.920000 0.000000
1.600000 38.791111 0.000000
1.600000 41.662222 0.000000
3.200000 5.742222 0.000000
3.200000 8.551111 0.000000
3.200000 11.360000 0.000000
3.200000 14.168889 0.000000
3.200000 16.977778 0.000000
3.200000 19.786667 0.000000
3.200000 22.595556 0.000000
3.200000 25.404444 0.000000
3.200000 28.213333 0.000000
3.200000 31.022222 0.000000
3.200000 33.831111 0.000000
3.200000 36.640000 0.000000
3.200000 39.448889 0.000000
3.200000 42.257778 0.000000
4.800000 7.146667 0.000000
4.800000 9.893333 0.000000
4.800000 12.640000 0.000000
4.800000 15.386667 0.000000
4.800000 18.133333 0.000000
4.800000 20.880000 0.000000
4.800000 23.626667 0.000000
4.800000 26.373333 0.000000
4.800000 29.120000 0.000000
4.800000 31.866667 0.000000
4.800000 34.613333 0.000000
4.800000 37.360000 0.000000
4.800000 40.106667 0.000000
4.800000 42.853333 0.000000
6.400000 8.551111 0.000000
6.400000 11.235556 0.000000
6.400000 13.920000 0.000000
6.400000 16.604444 0.000000
6.400000 19.288889 0.000000
6.400000 21.973333 0.000000
6.400000 24.657778 0.000000
6.400000 27.342222 0.000000
6.400000 30.026667 0.000000
6.400000 32.711111 0.000000
6.400000 35.395556 0.000000
6.400000 38.080000 0.000000
6.400000 40.764444 0.000000
6.400000 43.448889 0.000000
8.000000 9.955556 0.000000
8.000000 12.577778 0.000000
8.000000 15.200000 0.000000
8.000000 17.822222 0.000000
8.000000 20.444444 0.000000
8.000000 23.066667 0.000000
8.000000 25.688889 0.000000
8.000000 28.311111 0.000000
8.000000 30.933333 0.000000
8.000000 33.555556 0.000000
8.000000 36.177778 0.000000
8.000000 38.800000 0.000000
8.000000 41.422222 0.000000
8.000000 44.044444 0.000000
9.600000 11.360000 0.000000
9.600000 13.920000 0.000000
9.600000 16.480000 0.000000
9.600000 19.040000 0.000000
9.600000 21.600000 0.000000
9.600000 24.160000 0.000000
9.600000 26.720000 0.000000
9.600000 29.280000 0.000000
9.600000 31.840000 0.000000
9.600000 34.400000 0.000000
9.600000 36.960000 0.000000
9.600000 39.520000 0.000000
9.600000 42.080000 0.000000
9.600000 44.640000 0.000000
11.200000 12.764444 0.000000
11.200000 15.262222 0.000000
11.200000 17.760000 0.000000
11.200000 20.257778 0.000000
11.200000 22.755556 0.000000
11.200000 25.253333 0.000000
11.200000 27.751111 0.000000
11.200000 30.248889 0.000000
11.200000 32.746667 0.000000
11.200000 35.244444 0.000000
11.200000 37.742222 0.000000
11.200000 40.240000 0.000000
11.200000 42.737778 0.000000
11.200000 45.235556 0.000000
12.800000 14.168889 0.000000
12.800000 16.604444 0.000000
12.800000 19.040000 0.000000
12.800000 21.475556 0.000000
12.800000 23.911111 0.000000
12.800000 26.346667 0.000000
12.800000 28.782222 0.000000
12.800000 31.217778 0.000000
12.800000 33.653333 0.000000
12.800000 36.088889 0.000000
12.800000 38.524444 0.000000
12.800000 40.960000 0.000000
12.800000 43.395556 0.000000
12.800000 45.831111 0.000000
14.400000 15.573333 0.000000
14.400000 17.946667 0.000000
14.400000 20.320000 0.000000
14.400000 22.693333 0.000000
14.400000 25.066667 0.000000
14.400000 27.440000 0.000000
14.400000 29.813333 0.000000
14.400000 32.186667 0.000000
14.400000 34.560000 0.000000
14.400000 36.933333 0.000000
14.400000 39.306667 0.000000
14.400000 41.680000 0.000000
14.400000 44.053333 0.000000
14.400000 46.426667 0.000000
16.000000 16.977778 0.000000
16.000000 19.288889 0.000000
16.000000 21.600000 0.000000
16.000000 23.911111 0.000000
16.000000 26.222222 0.000000
16.000000 28.533333 0.000000
16.000000 30.844444 0.000000
16.000000 33.155556 0.000000
16.000000 35.466667 0.000000
16.000000 37.777778 0.000000
16.000000 40.088889 0.000000
16.000000 42.400000 0.000000
16.000000 44.711111 0.000000
16.000000 47.022222 0.000000
17.600000 18.382222 0.000000
17.600000 20.631111 0.000000
17.600000 22.880000 0.000000
17.600000 25.128889 0.000000
17.600000 27.377778 0.000000
17.600000 29.626667 0.000000
17.600000 31.875556 0.000000
17.600000 34.124444 0.000000
17.600000 36.373333 0.000000
17.600000 38.622222 0.000000
17.600000 40.871111 0.000000
17.600000 43.120000 0.000000
17.600000 45.368889 0.000000
17.600000 47.617778 0.000000
19.200000 19.786667 0.000000
19.200000 21.973333 0.000000
19.200000 24.160000 0.000000
19.200000 26.346667 0.000000
19.200000 28.533333 0.000000
19.200000 30.720000 0.000000
19.200000 32.906667 0.000000
19.200000 35.093333 0.000000
19.200000 37.280000 0.000000
19.200000 39.466667 0.000000
19.200000 41.653333 0.000000
19.200000 43.840000 0.000000
19.200000 46.026667 0.000000
19.200000 48.213333 0.000000
20.800000 21.191111 0.000000
20.800000 23.315556 0.000000
20.800000 25.440000 0.000000
20.800000 27.564444 0.000000
20.800000 29.688889 0.000000
20.800000 31.813333 0.000000
20.800000 33.937778 0.000000
20.800000 36.062222 0.000000
20.800000 38.186667 0.000000
20.800000 40.311111 0.000000
20.800000 42.435556 0.000000
20.800000 44.560000 0.000000
20.800000 46.684444 0.000000
20.800000 48.808889 0.000000
22.400000 22.595556 0.000000
22.400000 24.657778 0.000000
22.400000 26.720000 0.000000
22.400000 28.782222 0.000000
22.400000 30.844444 0.000000
22.400000 32.906667 0.000000
22.400000 34.968889 0.000000
22.400000 37.031111 0.000000
22.400000 39.093333 0.000000
22.400000 41.155556 0.000000
22.400000 43.217778 0.000000
22.400000 45.280000 0.000000
22.400000 47.342222 0.000000
22.400000 49.404444 0.000000
24.000000 24.000000 0.000000
24.000000 26.000000 0.000000
24.000000 28.000000 0.000000
24.000000 30.000000 0.000000
24.000000 32.000000 0.000000
24.000000 34.000000 0.000000
24.000000 36.000000 0.000000
24.000000 38.000000 0.000000
24.000000 40.000000 0.000000
24.000000 42.000000 0.000000
24.000000 44.000000 0.000000
24.000000 46.000000 0.000000
24.000000 48.000000 0.000000
24.000000 50.000000 0.000000
25.600000 25.404444 0.000000
25.600000 27.342222 0.000000
25.600000 29.280000 0.000000
25.600000 31.217778 0.000000
25.600000 33.155556 0.000000
25.600000 35.093333 0.000000
25.600000 37.031111 0.000000
25.600000 38.968889 0.000000
25.600000 40.906667 0.000000
25.600000 42.844444 0.000000
25.600000 44.782222 0.000000
25.600000 46.720000 0.000000
25.600000 48.657778 0.000000
25.600000 50.595556 0.000000
27.200000 26.808889 0.000000
27.200000 28.684444 0.000000
27.200000 30.560000 0.000000
27.200000 32.435556 0.000000
27.200000 34.311111 0.000000
27.200000 36.186667 0.000000
27.200000 38.062222 0.000000
27.200000 39.937778 0.000000
27.200000 41.813333 0.000000
27.200000 43.688889 0.000000
27.200000 45.564444 0.000000
27.200000 47.440000 0.000000
27.200000 49.315556 0.000000
27.200000 51.191111 0.000000
28.800000 28.213333 0.000000
28.800000 30.026667 0.000000
28.800000 31.840000 0.000000
28.800000 33.653333 0.000000
28.800000 35.466667 0.000000
28.800000 37.280000 0.000000
28.800000 39.093333 0.000000
28.800000 40.906667 0.000000
28.800000 42.720000 0.000000
28.800000 44.533333 0.000000
28.800000 46.346667 0.000000
28.800000 48.160000 0.000000
28.800000 49.973333 0.000000
28.800000 51.786667 0.000000
30.400000 29.617778 0.000000
30.400000 31.368889 0.000000
30.400000 33.120000 0.000000
30.400000 34.871111 0.000000
[...]
POINT_DATA 496
SCALARS P float 1
LOOKUP_TABLE default
36.259191
294.477003
4.516625
-129.000405
31.512074
37.365328
34.930434
39.805185
38.669424
44.175954
43.153884
50.299809
48.840626
56.912811
55.614144
63.410981
62.725102
70.431436
70.203544
77.810645
79.187043
85.973611
90.087236
96.837129
103.921934
112.035933
123.111526
134.560254
152.243522
167.749191
196.751275
219.694645
259.949401
-558.104346
689.036564
-723.181548
738.447280
-697.677007
677.043332
-600.159490
557.865469
-457.136665
399.987096
-288.014398
223.571693
-113.493656
49.011438
-80.568475
-114.375267
-119.412918
-118.600468
-126.120614
-121.327494
-128.047356
-121.117782
-124.255977
-116.961064
-118.379577
-111.671506
-111.784041
-105.777440
-104.273147
-100.929861
-96.804303
-95.700203
-91.588746
-89.760081
-87.202359
-86.502502
-79.810791
-87.928474
-69.948016
-90.982362
-62.155081
-94.247614
-60.428444
43.813040
-81.350686
54.493659
-53.638100
54.960358
-39.713853
56.130722
-30.598517
51.195709
-26.964644
44.369498
-25.552165
37.425175
-21.201805
-25.936129
35.445526
-28.934963
37.370345
-34.122700
39.417478
-41.107446
41.243065
-45.390932
45.090891
-53.608880
47.295961
-48.792163
48.948140
-25.341589
41.852967
-27.230214
49.307774
-29.688421
55.555029
-34.330404
57.378633
-47.257146
56.646214
-61.012235
47.298630
-92.795710
45.983913
-29.519079
38.793539
-33.914289
40.842425
-39.405456
42.322038
-45.930495
47.162223
-50.396958
49.122341
-55.933016
61.375736
-55.187439
54.382703
-29.165714
46.785747
-30.669303
52.922262
-34.138167
58.094856
-41.983841
57.183795
-53.440808
57.139319
-71.988854
43.913478
-85.023580
50.493265
-34.174859
42.936503
-38.732944
45.317532
-44.895579
47.505429
-49.097876
52.588998
-55.600446
56.442617
-53.275527
65.003495
-63.106221
60.866458
-33.033449
52.487972
-35.495088
57.575948
-39.598833
59.882207
-49.555583
59.323257
-59.012052
53.855435
-78.329792
50.302195
-82.315197
53.935372
-39.518497
49.017735
-44.027376
50.730533
-49.579002
54.508426
-52.840523
56.979171
-57.219927
65.521502
-56.740626
65.523235
-68.653704
65.521595
-38.200108
59.152262
-41.115342
62.941861
-46.739969
62.184152
-55.287607
61.846710
-67.246514
54.175262
-79.496470
58.095565
-84.365233
60.048820
-45.233672
56.683371
-50.159169
57.989692
-53.540393
61.527513
-57.919192
64.370440
-58.485972
71.705536
-64.945185
68.584045
-73.723517
67.583607
-44.989289
67.355119
-47.962166
68.356936
-54.900020
67.265666
-62.172079
64.279516
-75.318508
60.652295
-80.636385
64.319935
-87.329605
68.343300
-52.134433
65.689184
-56.749877
67.663577
-59.476061
69.455840
-63.164875
74.339018
-63.998348
75.930016
-73.673166
74.650753
-81.709592
70.945918
-53.268705
77.210331
-57.721902
75.719043
-63.848251
74.452529
-72.126665
69.656154
-81.746612
70.755409
-85.593533
71.772394
-90.524211
76.065829
-61.500297
77.827314
-65.093175
79.184523
-68.364006
80.652657
-70.072905
84.597846
-74.598721
82.433915
-82.725944
81.846118
-92.171529
78.680874
-64.575448
89.034244
-70.584761
86.991722
-75.854333
83.819578
-84.273899
80.520771
-89.199355
82.296084
-94.035003
82.919278
-96.892202
83.879797
-73.565185
94.010390
-77.892886
93.933278
-80.281494
95.635184
-81.960045
95.837683
-88.716860
93.400326
-94.860992
90.907567
-103.525793
89.715548
-80.609094
105.245721
-87.383525
102.495344
-92.807565
98.120829
-98.619159
96.927194
-101.137340
96.513160
-105.145162
97.333904
-108.160093
95.114211
-90.130197
114.733915
-96.506018
114.395060
-97.554115
114.368604
-100.626132
111.178372
-106.319944
108.860411
-111.884626
104.739121
-117.238618
102.821406
-101.798881
128.168782
-111.123627
124.105910
-115.410313
120.014735
-117.594847
118.794138
-119.425404
116.224946
-120.642987
114.877761
-123.536546
111.143410
-114.019187
143.287186
-123.187667
142.399390
-123.682609
138.834931
-126.975147
133.688537
-129.590850
129.429299
-133.989151
124.948108
-136.502382
119.944321
-130.704389
160.643488
-145.202701
156.081908
-146.032788
151.629102
-144.638672
147.463331
-145.140450
143.716500
-143.805743
138.396796
-143.227159
130.907559
-147.879156
184.472404
-163.264184
181.379174
-162.600677
173.123829
-163.204332
166.798334
-162.642245
158.257260
-162.234081
150.863024
-161.269809
141.873961
-171.834377
208.901616
-195.263775
205.138149
-190.954771
198.012426
-186.249572
187.614205
-180.005778
179.099627
-174.664045
169.838770
-169.520263
155.542079
-197.211365
246.609816
-227.549246
240.992913
-223.049531
225.535814
-212.886660
211.451737
-206.939366
198.280835
-200.695842
185.686749
-193.037969
168.209602
-233.410644
286.209702
-274.084991
283.049663
-259.415815
262.589461
-246.643810
246.762505
-232.276562
229.879532
-217.547719
211.224223
-202.230018
182.278412
-272.063267
342.334583
-330.937801
333.185238
-313.868411
310.550246
-293.401506
281.408598
-271.035691
252.948584
-248.998267
226.794753
-226.796635
191.893726
-323.214139
409.040371
-400.111470
410.798138
-382.180726
372.724015
-340.719090
331.105534
-301.418771
293.198199
-267.964602
258.535983
-237.351062
207.639966
-390.129087
497.413288
-512.168313
506.543405
-467.077867
437.710169
-404.328976
372.903999
-350.114937
319.458857
-305.249325
274.470195
-262.260482
211.308357
-457.590068
614.611449
-620.289788
600.843959
-544.026632
513.958925
-458.322222
438.344824
-389.609927
376.963160
-334.694527
321.381858
-279.664485
231.958437
-579.159519
736.821996
-743.890164
717.561174
-669.589141
622.974009
-577.382321
530.388289
-489.131625
440.468501
-398.783511
342.710039
-288.889216
196.626484
