# vtk DataFile Version 2.0
patchtest_tri3_mix
ASCII
DATASET POLYDATA
POINTS 38 float
0.000000 -0.500000 0.000000
1.000000 -0.500000 0.000000
1.000000 0.500000 0.000000
0.000000 0.500000 0.000000
0.200000 -0.500000 0.000000
0.400000 -0.500000 0.000000
0.600000 -0.500000 0.000000
0.800000 -0.500000 0.000000
1.000000 -0.300000 0.000000
1.000000 -0.100000 0.000000
1.000000 0.100000 0.000000
1.000000 0.300000 0.000000
0.800000 0.500000 0.000000
0.600000 0.500000 0.000000
0.400000 0.500000 0.000000
0.200000 0.500000 0.000000
0.000000 0.300000 0.000000
0.000000 0.100000 0.000000
0.000000 -0.100000 0.000000
0.000000 -0.300000 0.000000
0.632846 0.122518 0.000000
0.801516 -0.076294 0.000000
0.820098 0.117302 0.000000
0.388018 0.301544 0.000000
0.589932 0.309313 0.000000
0.796233 0.311346 0.000000
0.191270 0.296643 0.000000
0.729509 -0.335977 0.000000
0.220210 0.095920 0.000000
0.170827 -0.306206 0.000000
0.605412 -0.216143 0.000000
0.400890 -0.096762 0.000000
0.501927 -0.323229 0.000000
0.337306 -0.290197 0.000000
0.840017 -0.258424 0.000000
0.430605 0.106443 0.000000
0.606859 -0.059124 0.000000
0.193034 -0.101866 0.000000
POLYGONS 54 216
3 0 29 19
3 29 0 4
3 18 19 29
3 29 37 18
3 4 5 33
3 31 37 33
3 37 29 33
3 32 33 5
3 31 33 32
3 5 6 32
3 33 29 4
3 18 37 17
3 17 26 16
3 26 17 28
3 26 3 16
3 3 26 15
3 26 23 15
3 28 31 35
3 28 17 37
3 14 23 24
3 35 23 28
3 35 24 23
3 14 15 23
3 35 31 36
3 23 26 28
3 37 31 28
3 30 31 32
3 6 7 27
3 30 27 34
3 30 32 27
3 7 34 27
3 36 31 30
3 8 34 7
3 21 34 9
3 34 21 30
3 9 34 8
3 21 9 10
3 8 7 1
3 30 21 36
3 20 24 35
3 25 20 22
3 24 25 13
3 25 24 20
3 13 25 12
3 24 13 14
3 36 21 20
3 35 36 20
3 22 10 11
3 20 21 22
3 25 2 12
3 25 11 2
3 11 25 22
3 21 10 22
3 32 6 27
POINT_DATA 38
SCALARS P float 1
LOOKUP_TABLE default
2789.595734
-2363.754085
1563.106793
-2420.109005
1641.699858
3667.538167
-3667.816278
-815.067749
3883.836590
-2812.544591
-263.409441
-1586.755001
-4912.920415
-8317.866818
-10385.291189
-5836.416979
645.476027
900.040412
3477.224019
3020.594852
-9704.123253
6943.473823
-3125.902071
7948.853661
6911.981770
5493.551672
-1907.649372
9200.881902
-2168.950381
672.338694
-9434.671967
5856.080747
3250.882918
893.589168
-6089.668807
-5608.219853
5877.042366
-2510.110530
