# vtk DataFile Version 2.0
patchtest_tri3_mix
ASCII
DATASET POLYDATA
POINTS 36 float
0.000000 -0.500000 0.000000
1.000000 -0.500000 0.000000
1.000000 0.500000 0.000000
0.000000 0.500000 0.000000
0.200000 -0.500000 0.000000
0.400000 -0.500000 0.000000
0.600000 -0.500000 0.000000
0.800000 -0.500000 0.000000
1.000000 -0.300000 0.000000
1.000000 -0.100000 0.000000
1.000000 0.100000 0.000000
1.000000 0.300000 0.000000
0.800000 0.500000 0.000000
0.600000 0.500000 0.000000
0.400000 0.500000 0.000000
0.200000 0.500000 0.000000
0.000000 0.300000 0.000000
0.000000 0.100000 0.000000
0.000000 -0.100000 0.000000
0.000000 -0.300000 0.000000
0.590221 0.297214 0.000000
0.413002 0.104988 0.000000
0.612781 0.094774 0.000000
0.186092 -0.105004 0.000000
0.581326 -0.109083 0.000000
0.193276 0.298794 0.000000
0.388790 0.303077 0.000000
0.596622 -0.308457 0.000000
0.796471 -0.281691 0.000000
0.198021 -0.303241 0.000000
0.792142 0.318823 0.000000
0.792035 -0.071992 0.000000
0.808679 0.132524 0.000000
0.396004 -0.295310 0.000000
0.206247 0.097845 0.000000
0.379177 -0.092980 0.000000
POLYGONS 50 200
3 23 19 29
3 17 18 23
3 23 18 19
3 19 0 29
3 4 5 29
3 29 33 35
3 33 29 5
3 21 35 24
3 29 35 23
3 35 33 24
3 4 29 0
3 34 23 35
3 17 25 16
3 25 17 34
3 3 16 25
3 25 15 3
3 34 21 26
3 21 34 35
3 15 26 14
3 15 25 26
3 20 14 26
3 26 21 20
3 26 25 34
3 17 23 34
3 33 5 27
3 28 24 27
3 27 24 33
3 24 31 22
3 28 31 24
3 27 6 7
3 27 5 6
3 7 1 8
3 28 8 9
3 8 28 7
3 28 9 31
3 7 28 27
3 31 9 10
3 30 20 32
3 20 21 22
3 13 30 12
3 30 13 20
3 20 22 32
3 20 13 14
3 32 10 11
3 32 22 31
3 30 2 12
3 30 11 2
3 11 30 32
3 31 10 32
3 22 21 24
POINT_DATA 36
SCALARS P float 1
LOOKUP_TABLE default
2931.808990
207.579167
1515.816823
-1388.692335
937.096161
1773.073309
-205.861215
1747.379290
-593.782100
-3046.103729
-504.516997
-1313.349638
-4538.588975
-2835.672155
-4317.616265
-2077.739521
1619.344224
1163.602450
2611.699673
2712.084647
-102.110020
1816.054670
-4520.600503
-2757.952976
-1492.238728
-6177.809422
2642.053361
1075.526400
-582.670335
2361.265045
4199.811091
5298.201345
-1528.973597
1853.873069
-1382.931167
2218.757707
