# vtk DataFile Version 2.0
patchtest_tri3_mix
ASCII
DATASET POLYDATA
POINTS 496 float
0.000000 0.000000 0.000000
48.000000 44.000000 0.000000
48.000000 60.000000 0.000000
0.000000 44.000000 0.000000
1.600000 1.466667 0.000000
3.200000 2.933333 0.000000
4.800000 4.400000 0.000000
6.400000 5.866667 0.000000
8.000000 7.333333 0.000000
9.600000 8.800000 0.000000
11.200000 10.266667 0.000000
12.800000 11.733333 0.000000
14.400000 13.200000 0.000000
16.000000 14.666667 0.000000
17.600000 16.133333 0.000000
19.200000 17.600000 0.000000
20.800000 19.066667 0.000000
22.400000 20.533333 0.000000
24.000000 22.000000 0.000000
25.600000 23.466667 0.000000
27.200000 24.933333 0.000000
28.800000 26.400000 0.000000
30.400000 27.866667 0.000000
32.000000 29.333333 0.000000
33.600000 30.800000 0.000000
35.200000 32.266667 0.000000
36.800000 33.733333 0.000000
38.400000 35.200000 0.000000
40.000000 36.666667 0.000000
41.600000 38.133333 0.000000
43.200000 39.600000 0.000000
44.800000 41.066667 0.000000
46.400000 42.533333 0.000000
48.000000 45.066667 0.000000
48.000000 46.133333 0.000000
48.000000 47.200000 0.000000
48.000000 48.266667 0.000000
48.000000 49.333333 0.000000
48.000000 50.400000 0.000000
48.000000 51.466667 0.000000
48.000000 52.533333 0.000000
48.000000 53.600000 0.000000
48.000000 54.666667 0.000000
48.000000 55.733333 0.000000
48.000000 56.800000 0.000000
48.000000 57.866667 0.000000
48.000000 58.933333 0.000000
46.400000 59.466667 0.000000
44.800000 58.933333 0.000000
43.200000 58.400000 0.000000
41.600000 57.866667 0.000000
40.000000 57.333333 0.000000
38.400000 56.800000 0.000000
36.800000 56.266667 0.000000
35.200000 55.733333 0.000000
33.600000 55.200000 0.000000
32.000000 54.666667 0.000000
30.400000 54.133333 0.000000
28.800000 53.600000 0.000000
27.200000 53.066667 0.000000
25.600000 52.533333 0.000000
24.000000 52.000000 0.000000
22.400000 51.466667 0.000000
20.800000 50.933333 0.000000
19.200000 50.400000 0.000000
17.600000 49.866667 0.000000
16.000000 49.333333 0.000000
14.400000 48.800000 0.000000
12.800000 48.266667 0.000000
11.200000 47.733333 0.000000
9.600000 47.200000 0.000000
8.000000 46.666667 0.000000
6.400000 46.133333 0.000000
4.800000 45.600000 0.000000
3.200000 45.066667 0.000000
1.600000 44.533333 0.000000
0.000000 41.066667 0.000000
0.000000 38.133333 0.000000
0.000000 35.200000 0.000000
0.000000 32.266667 0.000000
0.000000 29.333333 0.000000
0.000000 26.400000 0.000000
0.000000 23.466667 0.000000
0.000000 20.533333 0.000000
0.000000 17.600000 0.000000
0.000000 14.666667 0.000000
0.000000 11.733333 0.000000
0.000000 8.800000 0.000000
0.000000 5.866667 0.000000
0.000000 2.933333 0.000000
1.600000 4.337778 0.000000
1.600000 7.208889 0.000000
1.600000 10.080000 0.000000
1.600000 12.951111 0.000000
1.600000 15.822222 0.000000
1.600000 18.693333 0.000000
1.600000 21.564444 0.000000
1.600000 24.435556 0.000000
1.600000 27.306667 0.000000
1.600000 30.177778 0.000000
1.600000 33.048889 0.000000
1.600000 35.920000 0.000000
1.600000 38.791111 0.000000
1.600000 41.662222 0.000000
3.200000 5.742222 0.000000
3.200000 8.551111 0.000000
3.200000 11.360000 0.000000
3.200000 14.168889 0.000000
3.200000 16.977778 0.000000
3.200000 19.786667 0.000000
3.200000 22.595556 0.000000
3.200000 25.404444 0.000000
3.200000 28.213333 0.000000
3.200000 31.022222 0.000000
3.200000 33.831111 0.000000
3.200000 36.640000 0.000000
3.200000 39.448889 0.000000
3.200000 42.257778 0.000000
4.800000 7.146667 0.000000
4.800000 9.893333 0.000000
4.800000 12.640000 0.000000
4.800000 15.386667 0.000000
4.800000 18.133333 0.000000
4.800000 20.880000 0.000000
4.800000 23.626667 0.000000
4.800000 26.373333 0.000000
4.800000 29.120000 0.000000
4.800000 31.866667 0.000000
4.800000 34.613333 0.000000
4.800000 37.360000 0.000000
4.800000 40.106667 0.000000
4.800000 42.853333 0.000000
6.400000 8.551111 0.000000
6.400000 11.235556 0.000000
6.400000 13.920000 0.000000
6.400000 16.604444 0.000000
6.400000 19.288889 0.000000
6.400000 21.973333 0.000000
6.400000 24.657778 0.000000
6.400000 27.342222 0.000000
6.400000 30.026667 0.000000
6.400000 32.711111 0.000000
6.400000 35.395556 0.000000
6.400000 38.080000 0.000000
6.400000 40.764444 0.000000
6.400000 43.448889 0.000000
8.000000 9.955556 0.000000
8.000000 12.577778 0.000000
8.000000 15.200000 0.000000
8.000000 17.822222 0.000000
8.000000 20.444444 0.000000
8.000000 23.066667 0.000000
8.000000 25.688889 0.000000
8.000000 28.311111 0.000000
8.000000 30.933333 0.000000
8.000000 33.555556 0.000000
8.000000 36.177778 0.000000
8.000000 38.800000 0.000000
8.000000 41.422222 0.000000
8.000000 44.044444 0.000000
9.600000 11.360000 0.000000
9.600000 13.920000 0.000000
9.600000 16.480000 0.000000
9.600000 19.040000 0.000000
9.600000 21.600000 0.000000
9.600000 24.160000 0.000000
9.600000 26.720000 0.000000
9.600000 29.280000 0.000000
9.600000 31.840000 0.000000
9.600000 34.400000 0.000000
9.600000 36.960000 0.000000
9.600000 39.520000 0.000000
9.600000 42.080000 0.000000
9.600000 44.640000 0.000000
11.200000 12.764444 0.000000
11.200000 15.262222 0.000000
11.200000 17.760000 0.000000
11.200000 20.257778 0.000000
11.200000 22.755556 0.000000
11.200000 25.253333 0.000000
11.200000 27.751111 0.000000
11.200000 30.248889 0.000000
11.200000 32.746667 0.000000
11.200000 35.244444 0.000000
11.200000 37.742222 0.000000
11.200000 40.240000 0.000000
11.200000 42.737778 0.000000
11.200000 45.235556 0.000000
12.800000 14.168889 0.000000
12.800000 16.604444 0.000000
12.800000 19.040000 0.000000
12.800000 21.475556 0.000000
12.800000 23.911111 0.000000
12.800000 26.346667 0.000000
12.800000 28.782222 0.000000
12.800000 31.217778 0.000000
12.800000 33.653333 0.000000
12.800000 36.088889 0.000000
12.800000 38.524444 0.000000
12.800000 40.960000 0.000000
12.800000 43.395556 0.000000
12.800000 45.831111 0.000000
14.400000 15.573333 0.000000
14.400000 17.946667 0.000000
14.400000 20.320000 0.000000
14.400000 22.693333 0.000000
14.400000 25.066667 0.000000
14.400000 27.440000 0.000000
14.400000 29.813333 0.000000
14.400000 32.186667 0.000000
14.400000 34.560000 0.000000
14.400000 36.933333 0.000000
14.400000 39.306667 0.000000
14.400000 41.680000 0.000000
14.400000 44.053333 0.000000
14.400000 46.426667 0.000000
16.000000 16.977778 0.000000
16.000000 19.288889 0.000000
16.000000 21.600000 0.000000
16.000000 23.911111 0.000000
16.000000 26.222222 0.000000
16.000000 28.533333 0.000000
16.000000 30.844444 0.000000
16.000000 33.155556 0.000000
16.000000 35.466667 0.000000
16.000000 37.777778 0.000000
16.000000 40.088889 0.000000
16.000000 42.400000 0.000000
16.000000 44.711111 0.000000
16.000000 47.022222 0.000000
17.600000 18.382222 0.000000
17.600000 20.631111 0.000000
17.600000 22.880000 0.000000
17.600000 25.128889 0.000000
17.600000 27.377778 0.000000
17.600000 29.626667 0.000000
17.600000 31.875556 0.000000
17.600000 34.124444 0.000000
17.600000 36.373333 0.000000
17.600000 38.622222 0.000000
17.600000 40.871111 0.000000
17.600000 43.120000 0.000000
17.600000 45.368889 0.000000
17.600000 47.617778 0.000000
19.200000 19.786667 0.000000
19.200000 21.973333 0.000000
19.200000 24.160000 0.000000
19.200000 26.346667 0.000000
19.200000 28.533333 0.000000
19.200000 30.720000 0.000000
19.200000 32.906667 0.000000
19.200000 35.093333 0.000000
19.200000 37.280000 0.000000
19.200000 39.466667 0.000000
19.200000 41.653333 0.000000
19.200000 43.840000 0.000000
19.200000 46.026667 0.000000
19.200000 48.213333 0.000000
20.800000 21.191111 0.000000
20.800000 23.315556 0.000000
20.800000 25.440000 0.000000
20.800000 27.564444 0.000000
20.800000 29.688889 0.000000
20.800000 31.813333 0.000000
20.800000 33.937778 0.000000
20.800000 36.062222 0.000000
20.800000 38.186667 0.000000
20.800000 40.311111 0.000000
20.800000 42.435556 0.000000
20.800000 44.560000 0.000000
20.800000 46.684444 0.000000
20.800000 48.808889 0.000000
22.400000 22.595556 0.000000
22.400000 24.657778 0.000000
22.400000 26.720000 0.000000
22.400000 28.782222 0.000000
22.400000 30.844444 0.000000
22.400000 32.906667 0.000000
22.400000 34.968889 0.000000
22.400000 37.031111 0.000000
22.400000 39.093333 0.000000
22.400000 41.155556 0.000000
22.400000 43.217778 0.000000
22.400000 45.280000 0.000000
22.400000 47.342222 0.000000
22.400000 49.404444 0.000000
24.000000 24.000000 0.000000
24.000000 26.000000 0.000000
24.000000 28.000000 0.000000
24.000000 30.000000 0.000000
24.000000 32.000000 0.000000
24.000000 34.000000 0.000000
24.000000 36.000000 0.000000
24.000000 38.000000 0.000000
24.000000 40.000000 0.000000
24.000000 42.000000 0.000000
24.000000 44.000000 0.000000
24.000000 46.000000 0.000000
24.000000 48.000000 0.000000
24.000000 50.000000 0.000000
25.600000 25.404444 0.000000
25.600000 27.342222 0.000000
25.600000 29.280000 0.000000
25.600000 31.217778 0.000000
25.600000 33.155556 0.000000
25.600000 35.093333 0.000000
25.600000 37.031111 0.000000
25.600000 38.968889 0.000000
25.600000 40.906667 0.000000
25.600000 42.844444 0.000000
25.600000 44.782222 0.000000
25.600000 46.720000 0.000000
25.600000 48.657778 0.000000
25.600000 50.595556 0.000000
27.200000 26.808889 0.000000
27.200000 28.684444 0.000000
27.200000 30.560000 0.000000
27.200000 32.435556 0.000000
27.200000 34.311111 0.000000
27.200000 36.186667 0.000000
27.200000 38.062222 0.000000
27.200000 39.937778 0.000000
27.200000 41.813333 0.000000
27.200000 43.688889 0.000000
27.200000 45.564444 0.000000
27.200000 47.440000 0.000000
27.200000 49.315556 0.000000
27.200000 51.191111 0.000000
28.800000 28.213333 0.000000
28.800000 30.026667 0.000000
28.800000 31.840000 0.000000
28.800000 33.653333 0.000000
28.800000 35.466667 0.000000
28.800000 37.280000 0.000000
28.800000 39.093333 0.000000
28.800000 40.906667 0.000000
28.800000 42.720000 0.000000
28.800000 44.533333 0.000000
28.800000 46.346667 0.000000
28.800000 48.160000 0.000000
28.800000 49.973333 0.000000
28.800000 51.786667 0.000000
30.400000 29.617778 0.000000
30.400000 31.368889 0.000000
30.400000 33.120000 0.000000
30.400000 34.871111 0.000000
[...]
POINT_DATA 496
SCALARS P float 1
LOOKUP_TABLE default
36.118459
293.151721
4.496682
-128.721665
31.375621
37.205791
34.771267
39.630199
38.488475
43.985855
42.953600
50.090908
48.621627
56.681406
55.373151
63.154454
62.456372
70.145620
69.901373
77.488457
78.844173
85.605130
89.691884
96.408126
103.454861
111.524274
122.544933
133.925720
151.529704
166.942328
195.812718
218.617481
258.709309
-555.613809
686.092873
-720.148720
735.523296
-694.948019
674.569839
-597.968443
555.984147
-455.569346
398.741282
-287.074889
222.933497
-113.130026
48.905339
-80.336405
-113.998336
-118.985097
-118.113144
-125.603892
-120.777691
-127.485281
-120.549801
-123.696856
-116.410739
-117.844493
-111.148995
-111.280562
-105.289248
-103.804658
-100.475585
-96.369920
-95.278462
-91.184799
-89.367598
-86.825455
-86.135125
-79.458447
-87.584294
-69.617800
-90.661011
-61.846222
-93.947415
-60.142610
43.542589
-81.087960
54.238886
-53.392375
54.723127
-39.486208
55.911736
-30.389855
50.996003
-26.776825
44.192399
-25.384616
37.269794
-21.066027
-25.777679
35.282276
-28.763460
37.189959
-33.930164
39.218974
-40.897019
41.024809
-45.161107
44.851547
-53.359725
47.035922
-48.525115
48.666514
-25.178640
41.679603
-27.044627
49.111663
-29.484863
55.339755
-34.106465
57.143728
-47.013484
56.392727
-60.749583
47.026738
-92.512838
45.694233
-29.343745
38.609447
-33.722086
40.644697
-39.195616
42.105415
-45.702583
46.926216
-50.150199
48.865019
-55.665806
61.095414
-54.900811
54.080752
-28.978338
46.591870
-30.466939
52.708305
-33.916601
57.862591
-41.742900
56.931876
-53.178937
56.867072
-71.706104
43.622208
-84.719703
50.180980
-33.979243
42.733102
-38.519119
45.098910
-44.666319
47.268989
-48.850344
52.332428
-55.333761
56.164790
-52.988723
64.701847
-62.797767
60.544589
-32.823384
52.269910
-35.271158
57.341747
-39.356436
59.629307
-49.293810
59.051220
-58.729583
53.562690
-78.024963
49.989388
-81.991012
53.600884
-39.296163
48.790595
-43.789664
50.487018
-49.325571
54.248011
-52.569985
56.698949
-56.930081
65.219939
-56.431700
65.200077
-68.321854
65.177378
-37.963789
58.906398
-40.863329
62.681225
-46.471661
61.906015
-55.000138
61.549781
-66.939348
53.859209
-79.167959
57.757814
-84.018144
59.691502
-44.978715
56.424146
-49.891078
57.715788
-53.256869
61.236798
-57.619750
64.061696
-58.168738
71.376113
-64.608699
68.236105
-73.366385
67.214227
-44.717556
67.074610
-47.674953
68.061728
-54.597640
66.955106
-61.852454
63.951252
-74.980018
60.306242
-80.280108
63.953046
-86.954291
67.958707
-51.839530
65.388337
-56.441226
67.350086
-59.154270
69.126730
-62.827971
73.993401
-63.646002
75.566809
-73.301715
74.270301
-81.321420
70.546553
-52.949506
76.882698
-57.388564
75.378926
-63.501043
74.098660
-71.764751
69.287107
-81.368006
70.368887
-85.200296
71.369224
-90.113337
75.646414
-61.152618
77.471820
-64.730527
78.817653
-67.990816
80.273185
-69.686864
84.203729
-74.198691
82.026645
-82.310055
81.422382
-91.741892
78.242196
-64.194666
88.642343
-70.188015
86.590544
-75.447061
83.407090
-83.854658
80.096136
-88.768278
81.856051
-93.590766
82.467531
-96.434849
83.415706
-73.146472
93.580111
-77.456899
93.493861
-79.837516
95.186784
-81.507187
95.379240
-88.251952
92.932476
-94.386945
90.427384
-103.041715
89.224920
-80.146888
104.766544
-86.899426
102.009060
-92.317391
97.627725
-98.121777
96.425144
-100.634518
96.002829
-104.632498
96.816742
-107.640587
94.591989
-89.616769
114.199863
-95.967743
113.855629
-97.012445
113.825106
-100.080089
110.632744
-105.768324
108.309146
-111.331877
104.184223
-116.683949
102.264584
-101.226334
127.568293
-110.518448
123.500907
-114.804550
119.408968
-116.990780
118.185725
-118.822328
115.620328
-120.040009
114.274655
-122.935117
110.545558
-113.378047
142.607957
-122.504068
141.718501
-123.003976
138.160909
-126.300058
133.022747
-128.924590
128.766725
-133.330540
124.292854
-135.854321
119.303939
-129.979874
159.868038
-144.423456
155.308602
-145.266291
150.865958
-143.888404
146.712602
-144.398954
142.981837
-143.080770
137.681235
-142.522255
130.218920
-147.059231
183.584123
-162.371510
180.496392
-161.725872
172.266897
-162.349828
165.961321
-161.818531
157.448203
-161.440608
150.082844
-160.506853
141.134734
-170.899045
207.870692
-194.225404
204.112417
-189.952589
197.019987
-185.287264
186.671816
-179.085523
178.199745
-173.784793
168.980825
-168.685792
154.746737
-196.133610
245.400231
-226.330026
239.802628
-221.880495
224.414418
-211.793562
210.389658
-205.907029
197.277988
-199.725442
184.747814
-192.136646
167.365999
-232.161023
284.782868
-272.648890
281.640305
-258.070687
261.281349
-245.379909
245.543035
-231.103227
228.754926
-216.472097
210.199777
-201.259867
181.394930
-270.614866
340.643992
-329.214500
331.527717
-312.256016
309.006910
-291.932397
280.016304
-269.721913
251.711092
-247.836895
225.705844
-225.785612
190.997479
-321.516127
406.995455
-398.036953
408.753741
-380.239765
370.906943
-339.027395
329.537448
-299.965341
291.854274
-266.719926
257.387493
-236.299559
206.737938
-388.104186
494.938801
-509.578148
504.069981
-464.794039
435.623424
-402.430838
371.177843
-348.545376
318.030217
-303.949738
273.290920
-261.208918
210.442075
-455.228150
611.590854
-617.231236
597.996014
-541.442097
511.637539
-456.236970
436.475099
-387.928222
375.455029
-333.340527
320.180248
-278.620358
231.146059
-576.362411
733.402166
-740.489792
714.393639
-666.712612
620.387956
-575.070519
528.332630
-487.315110
438.878706
-397.410760
341.553476
-287.964467
195.992844
