# vtk DataFile Version 2.0
cantilever_Q4P1_mix
ASCII
DATASET POLYDATA
POINTS 861 float
0.000000 0.000000 0.000000
48.000000 44.000000 0.000000
48.000000 60.000000 0.000000
0.000000 44.000000 0.000000
2.664144 2.442132 0.000000
5.201425 4.767973 0.000000
7.617883 6.983059 0.000000
9.919271 9.092665 0.000000
12.111069 11.101813 0.000000
14.198496 13.015288 0.000000
16.186522 14.837645 0.000000
18.079879 16.573223 0.000000
19.883077 18.226154 0.000000
21.600409 19.800375 0.000000
23.235962 21.299632 0.000000
24.793632 22.727496 0.000000
26.277128 24.087367 0.000000
27.689980 25.382482 0.000000
29.035554 26.615925 0.000000
30.317053 27.790632 0.000000
31.537529 28.909401 0.000000
32.699886 29.974896 0.000000
33.806893 30.989652 0.000000
34.861186 31.956087 0.000000
35.865274 32.876501 0.000000
36.821548 33.753086 0.000000
37.732286 34.587928 0.000000
38.599655 35.383017 0.000000
39.425720 36.140244 0.000000
40.212450 36.861412 0.000000
40.961716 37.548239 0.000000
41.675302 38.202360 0.000000
42.354908 38.825333 0.000000
43.002153 39.418640 0.000000
43.618576 39.983694 0.000000
44.205645 40.521841 0.000000
44.764759 41.034362 0.000000
45.297248 41.522477 0.000000
45.804381 41.987349 0.000000
46.287364 42.430084 0.000000
46.747349 42.851736 0.000000
47.185429 43.253310 0.000000
47.602648 43.635761 0.000000
48.000000 44.800000 0.000000
48.000000 45.600000 0.000000
48.000000 46.400000 0.000000
48.000000 47.200000 0.000000
48.000000 48.000000 0.000000
48.000000 48.800000 0.000000
48.000000 49.600000 0.000000
48.000000 50.400000 0.000000
48.000000 51.200000 0.000000
48.000000 52.000000 0.000000
48.000000 52.800000 0.000000
48.000000 53.600000 0.000000
48.000000 54.400000 0.000000
48.000000 55.200000 0.000000
48.000000 56.000000 0.000000
48.000000 56.800000 0.000000
48.000000 57.600000 0.000000
48.000000 58.400000 0.000000
48.000000 59.200000 0.000000
47.602648 59.867549 0.000000
47.185429 59.728476 0.000000
46.747349 59.582450 0.000000
46.287364 59.429121 0.000000
45.804381 59.268127 0.000000
45.297248 59.099083 0.000000
44.764759 58.921586 0.000000
44.205645 58.735215 0.000000
43.618575 58.539525 0.000000
43.002153 58.334051 0.000000
42.354908 58.118303 0.000000
41.675302 57.891767 0.000000
40.961716 57.653905 0.000000
40.212450 57.404150 0.000000
39.425720 57.141907 0.000000
38.599655 56.866552 0.000000
37.732286 56.577429 0.000000
36.821548 56.273849 0.000000
35.865274 55.955091 0.000000
34.861186 55.620395 0.000000
33.806893 55.268964 0.000000
32.699886 54.899962 0.000000
31.537529 54.512510 0.000000
30.317053 54.105684 0.000000
29.035554 53.678518 0.000000
27.689980 53.229993 0.000000
26.277128 52.759043 0.000000
24.793632 52.264544 0.000000
23.235962 51.745321 0.000000
21.600409 51.200136 0.000000
19.883077 50.627692 0.000000
18.079879 50.026626 0.000000
16.186522 49.395507 0.000000
14.198496 48.732832 0.000000
12.111069 48.037023 0.000000
9.919271 47.306424 0.000000
7.617883 46.539294 0.000000
5.201425 45.733808 0.000000
2.664144 44.888048 0.000000
0.000000 41.800000 0.000000
0.000000 39.600000 0.000000
0.000000 37.400000 0.000000
0.000000 35.200000 0.000000
0.000000 33.000000 0.000000
0.000000 30.800000 0.000000
0.000000 28.600000 0.000000
0.000000 26.400000 0.000000
0.000000 24.200000 0.000000
0.000000 22.000000 0.000000
0.000000 19.800000 0.000000
0.000000 17.600000 0.000000
0.000000 15.400000 0.000000
0.000000 13.200000 0.000000
0.000000 11.000000 0.000000
0.000000 8.800000 0.000000
0.000000 6.600000 0.000000
0.000000 4.400000 0.000000
0.000000 2.200000 0.000000
2.599043 4.507101 0.000000
2.581603 6.615915 0.000000
2.577174 8.736706 0.000000
2.576134 10.860619 0.000000
2.575906 12.985280 0.000000
2.575859 15.110108 0.000000
2.575850 17.234971 0.000000
2.575848 19.359840 0.000000
2.575848 21.484711 0.000000
2.575848 23.609582 0.000000
2.575848 25.734453 0.000000
2.575848 27.859324 0.000000
2.575848 29.984196 0.000000
2.575848 32.109067 0.000000
2.575848 34.233938 0.000000
2.575849 36.358809 0.000000
2.575930 38.483708 0.000000
2.577883 40.609239 0.000000
2.593298 42.739314 0.000000
5.119318 6.744179 0.000000
5.090866 8.769814 0.000000
5.082480 10.813933 0.000000
5.080259 12.863733 0.000000
5.079718 14.915080 0.000000
5.079594 16.966813 0.000000
5.079568 19.018634 0.000000
5.079562 21.070476 0.000000
5.079561 23.122321 0.000000
5.079561 25.174167 0.000000
5.079561 27.226013 0.000000
5.079561 29.277859 0.000000
5.079561 31.329705 0.000000
5.079561 33.381551 0.000000
5.079561 35.433397 0.000000
5.079575 37.485248 0.000000
5.079947 39.537220 0.000000
5.084315 41.590543 0.000000
5.110118 43.651111 0.000000
7.533200 8.886626 0.000000
7.501238 10.838802 0.000000
7.490795 12.810815 0.000000
7.487750 14.789647 0.000000
7.486938 16.770537 0.000000
7.486736 18.751989 0.000000
7.486689 20.733584 0.000000
7.486678 22.715213 0.000000
7.486676 24.696850 0.000000
7.486675 26.678488 0.000000
7.486675 28.660126 0.000000
7.486675 30.641765 0.000000
7.486675 32.623404 0.000000
7.486675 34.605042 0.000000
7.486677 36.586682 0.000000
7.486725 38.568336 0.000000
7.487411 40.550207 0.000000
7.493216 42.533810 0.000000
7.522510 44.525366 0.000000
9.836528 10.930852 0.000000
9.804306 12.815639 0.000000
9.793260 14.719954 0.000000
9.789839 16.631302 0.000000
9.788864 18.544904 0.000000
9.788605 20.459167 0.000000
9.788540 22.373608 0.000000
9.788524 24.288095 0.000000
9.788521 26.202594 0.000000
9.788520 28.117095 0.000000
9.788520 30.031596 0.000000
9.788520 31.946097 0.000000
9.788520 33.860599 0.000000
9.788520 35.775100 0.000000
9.788525 37.689604 0.000000
9.788610 39.604134 0.000000
9.789481 41.518930 0.000000
9.795777 43.435565 0.000000
9.825472 45.360130 0.000000
12.031597 12.878956 0.000000
12.000292 14.700535 0.000000
11.989337 16.540885 0.000000
11.985838 18.388112 0.000000
11.984800 20.237610 0.000000
11.984510 22.087797 0.000000
11.984434 23.938182 0.000000
11.984414 25.788619 0.000000
11.984410 27.639069 0.000000
11.984409 29.489523 0.000000
11.984408 31.339977 0.000000
11.984408 33.190432 0.000000
11.984408 35.040887 0.000000
11.984409 36.891342 0.000000
11.984418 38.741800 0.000000
11.984525 40.592290 0.000000
11.985464 42.443063 0.000000
11.991771 44.295656 0.000000
12.020702 46.155922 0.000000
14.122597 14.734684 0.000000
14.092576 16.496406 0.000000
14.081982 18.276052 0.000000
14.078550 20.062304 0.000000
14.077510 21.850762 0.000000
14.077211 23.639904 0.000000
14.077129 25.429247 0.000000
14.077108 27.218645 0.000000
14.077103 29.008058 0.000000
14.077101 30.797474 0.000000
14.077101 32.586892 0.000000
14.077101 34.376310 0.000000
14.077101 36.165728 0.000000
14.077102 37.955146 0.000000
14.077113 39.744568 0.000000
14.077229 41.534025 0.000000
14.078170 43.323762 0.000000
14.084294 45.115257 0.000000
14.112077 46.914098 0.000000
16.114171 16.502167 0.000000
16.085511 18.206999 0.000000
16.075366 19.928913 0.000000
16.072060 21.657135 0.000000
16.071047 23.387474 0.000000
16.070751 25.118474 0.000000
16.070669 26.849671 0.000000
16.070647 28.580924 0.000000
16.070641 30.312191 0.000000
16.070639 32.043463 0.000000
16.070639 33.774736 0.000000
16.070639 35.506009 0.000000
16.070639 37.237282 0.000000
16.070640 38.968555 0.000000
16.070653 40.699833 0.000000
16.070769 42.431145 0.000000
16.071684 44.162728 0.000000
16.077559 45.895994 0.000000
16.104097 47.636270 0.000000
18.010953 18.185522 0.000000
17.983636 19.836211 0.000000
17.973956 21.503172 0.000000
17.970793 23.176146 0.000000
17.969819 24.851139 0.000000
17.969534 26.526767 0.000000
17.969453 28.202585 0.000000
17.969430 29.878456 0.000000
17.969425 31.554342 0.000000
17.969423 33.230233 0.000000
17.969423 34.906124 0.000000
17.969423 36.582016 0.000000
17.969423 38.257908 0.000000
17.969424 39.933800 0.000000
17.969437 41.609697 0.000000
17.969551 43.285627 0.000000
17.970429 44.961817 0.000000
17.976039 46.639612 0.000000
18.001339 48.324087 0.000000
19.817427 19.788730 0.000000
19.791404 21.387867 0.000000
19.782178 23.002501 0.000000
19.779161 24.622863 0.000000
19.778231 26.245151 0.000000
19.777956 27.868044 0.000000
19.777878 29.491118 0.000000
19.777857 31.114244 0.000000
19.777851 32.737385 0.000000
19.777850 34.360530 0.000000
19.777849 35.983675 0.000000
19.777849 37.606821 0.000000
19.777849 39.229968 0.000000
19.777851 40.853114 0.000000
19.777863 42.476264 0.000000
19.777972 44.099447 0.000000
19.778811 45.722878 0.000000
19.784159 47.347839 0.000000
19.808264 48.979163 0.000000
21.537883 21.315598 0.000000
21.513097 22.865641 0.000000
21.504308 24.430444 0.000000
21.501433 26.000703 0.000000
21.500546 27.572796 0.000000
21.500284 29.145466 0.000000
21.500209 30.718308 0.000000
21.500188 32.291200 0.000000
21.500183 33.864106 0.000000
21.500181 35.437017 0.000000
21.500181 37.009928 0.000000
21.500181 38.582839 0.000000
21.500181 40.155750 0.000000
21.500182 41.728662 0.000000
21.500194 43.301578 0.000000
21.500299 44.874524 0.000000
21.501099 46.447707 0.000000
21.506194 48.022347 0.000000
21.529153 49.603048 0.000000
23.176413 22.769759 0.000000
23.152807 24.273048 0.000000
23.144436 25.790394 0.000000
23.141697 27.312935 0.000000
23.140852 28.837224 0.000000
23.140602 30.362062 0.000000
23.140531 31.887065 0.000000
23.140511 33.412116 0.000000
23.140506 34.937179 0.000000
23.140504 36.462247 0.000000
23.140504 37.987315 0.000000
23.140504 39.512383 0.000000
23.140504 41.037452 0.000000
23.140505 42.562521 0.000000
23.140517 44.087594 0.000000
23.140616 45.612696 0.000000
23.141378 47.138023 0.000000
23.146231 48.664739 0.000000
23.168098 50.197226 0.000000
24.736919 24.154675 0.000000
24.714436 25.613436 0.000000
24.706464 27.085585 0.000000
24.703855 28.562682 0.000000
24.703050 30.041443 0.000000
24.702812 31.520728 0.000000
24.702744 33.000169 0.000000
24.702725 34.479656 0.000000
24.702720 35.959155 0.000000
24.702719 37.438658 0.000000
24.702718 38.918161 0.000000
24.702718 40.397665 0.000000
24.702718 41.877170 0.000000
24.702720 43.356674 0.000000
24.702731 44.836182 0.000000
24.702826 46.315718 0.000000
[...]
POINT_DATA 861
VECTORS U float
-0.003815 0.004227 0.000000
-5.454356 25.377654 0.000000
-19.785631 27.433384 0.000000
-0.003815 0.004227 0.000000
0.017915 0.647794 0.000000
0.017445 1.206844 0.000000
0.062909 1.700070 0.000000
0.130969 2.135595 0.000000
0.271395 2.551246 0.000000
0.431712 2.976385 0.000000
0.630719 3.436644 0.000000
0.816109 3.944349 0.000000
1.000366 4.506213 0.000000
1.144679 5.120781 0.000000
1.263075 5.784009 0.000000
1.330892 6.488875 0.000000
1.363393 7.227878 0.000000
1.346414 7.993575 0.000000
1.294283 8.778700 0.000000
1.199525 9.577273 0.000000
1.074079 10.383403 0.000000
0.914471 11.192725 0.000000
0.729888 12.000759 0.000000
0.519179 12.804381 0.000000
0.289091 13.600260 0.000000
0.039774 14.386132 0.000000
-0.223927 15.159552 0.000000
-0.501207 15.918854 0.000000
-0.788597 16.662270 0.000000
-1.085037 17.388572 0.000000
-1.388028 18.096504 0.000000
-1.696490 18.785177 0.000000
-2.008607 19.453725 0.000000
-2.323405 20.101530 0.000000
-2.639564 20.728019 0.000000
-2.956273 21.332793 0.000000
-3.272604 21.915503 0.000000
-3.587944 22.475938 0.000000
-3.901735 23.013926 0.000000
-4.213638 23.529473 0.000000
-4.523735 24.022550 0.000000
-4.832304 24.493734 0.000000
-5.142395 24.942403 0.000000
-6.111216 25.401931 0.000000
-6.714398 25.447972 0.000000
-7.300385 25.504066 0.000000
-7.879786 25.574810 0.000000
-8.459717 25.656240 0.000000
-9.044666 25.747817 0.000000
-9.638222 25.847752 0.000000
-10.243376 25.955120 0.000000
-10.862795 26.068704 0.000000
-11.499026 26.187598 0.000000
-12.154565 26.310795 0.000000
-12.832088 26.437452 0.000000
-13.534441 26.566657 0.000000
-14.265188 26.697658 0.000000
-15.028340 26.829598 0.000000
-15.830348 26.961891 0.000000
-16.678477 27.093649 0.000000
-17.590549 27.224092 0.000000
-18.588132 27.354020 0.000000
-19.546097 26.761082 0.000000
-19.296819 26.141595 0.000000
-19.042957 25.540652 0.000000
-18.786059 24.947187 0.000000
-18.525271 24.354246 0.000000
-18.259590 23.757516 0.000000
-17.987993 23.153878 0.000000
-17.709471 22.540960 0.000000
-17.423046 21.916847 0.000000
-17.127668 21.279973 0.000000
-16.822284 20.629048 0.000000
-16.505732 19.963050 0.000000
-16.176850 19.281219 0.000000
-15.834377 18.583086 0.000000
-15.477096 17.868482 0.000000
-15.103735 17.137581 0.000000
-14.713141 16.390905 0.000000
-14.304180 15.629349 0.000000
-13.875905 14.854198 0.000000
-13.427490 14.067095 0.000000
-12.958308 13.270104 0.000000
-12.468002 12.465571 0.000000
-11.956291 11.656312 0.000000
-11.423436 10.845275 0.000000
-10.869381 10.036008 0.000000
-10.295206 9.231888 0.000000
-9.700729 8.437234 0.000000
-9.088224 7.655567 0.000000
-8.456584 6.892176 0.000000
-7.810141 6.150137 0.000000
-7.145004 5.436372 0.000000
-6.469764 4.752028 0.000000
-5.772998 4.107931 0.000000
-5.074031 3.498490 0.000000
-4.339778 2.947281 0.000000
-3.623058 2.421334 0.000000
-2.816659 1.999006 0.000000
-2.103567 1.499161 0.000000
-1.038114 1.304170 0.000000
0.003815 -0.004227 0.000000
-0.003815 0.004227 0.000000
0.003815 -0.004227 0.000000
-0.003815 0.004227 0.000000
0.003815 -0.004227 0.000000
-0.003815 0.004227 0.000000
0.003815 -0.004227 0.000000
-0.003815 0.004227 0.000000
0.003815 -0.004227 0.000000
-0.003815 0.004227 0.000000
0.003815 -0.004227 0.000000
-0.003815 0.004227 0.000000
0.003815 -0.004227 0.000000
-0.003815 0.004227 0.000000
0.003815 -0.004227 0.000000
-0.003815 0.004227 0.000000
0.003815 -0.004227 0.000000
-0.003815 0.004227 0.000000
0.003815 -0.004227 0.000000
-0.002996 0.616455 0.000000
0.013255 0.603247 0.000000
0.008882 0.594740 0.000000
0.028278 0.565085 0.000000
0.027685 0.532157 0.000000
0.043526 0.470971 0.000000
0.041985 0.412389 0.000000
0.051852 0.327690 0.000000
0.048149 0.255241 0.000000
0.051190 0.161425 0.000000
0.045298 0.090332 0.000000
0.040306 0.003501 0.000000
0.032076 -0.048920 0.000000
0.015423 -0.109454 0.000000
0.003043 -0.119017 0.000000
-0.037238 -0.121224 0.000000
-0.063570 -0.037353 0.000000
-0.181230 0.106677 0.000000
-0.294145 0.470394 0.000000
0.033544 1.172903 0.000000
0.041323 1.143988 0.000000
0.080291 1.097205 0.000000
0.100419 1.039080 0.000000
0.135933 0.949777 0.000000
0.150270 0.854734 0.000000
0.171574 0.731375 0.000000
0.173939 0.614903 0.000000
0.177465 0.478179 0.000000
0.166058 0.363030 0.000000
0.149233 0.238117 0.000000
0.121756 0.151248 0.000000
0.077967 0.068664 0.000000
0.026568 0.045416 0.000000
-0.064150 0.049993 0.000000
-0.165978 0.148209 0.000000
-0.370571 0.324940 0.000000
-0.624785 0.654142 0.000000
-1.237551 1.178027 0.000000
0.086927 1.657221 0.000000
0.148431 1.603300 0.000000
0.193455 1.534148 0.000000
0.252938 1.434787 0.000000
0.287343 1.324456 0.000000
0.323877 1.186290 0.000000
0.334815 1.050897 0.000000
0.340686 0.897033 0.000000
0.323530 0.762365 0.000000
0.294205 0.621782 0.000000
0.244390 0.518447 0.000000
0.171056 0.425311 0.000000
0.076879 0.390462 0.000000
-0.063355 0.388738 0.000000
-0.233489 0.471185 0.000000
-0.500415 0.621785 0.000000
-0.830557 0.876212 0.000000
-1.376387 1.237022 0.000000
-2.053514 1.556292 0.000000
0.217400 2.086156 0.000000
0.289175 2.019009 0.000000
0.374130 1.924268 0.000000
0.430279 1.814369 0.000000
0.483671 1.677771 0.000000
0.504866 1.540117 0.000000
0.514710 1.385388 0.000000
0.493486 1.246602 0.000000
0.453453 1.103615 0.000000
0.383665 0.994493 0.000000
0.284083 0.896799 0.000000
0.152995 0.851843 0.000000
-0.027768 0.837733 0.000000
-0.249117 0.894868 0.000000
-0.557426 1.005991 0.000000
-0.928678 1.194181 0.000000
-1.446911 1.453070 0.000000
-2.054077 1.722763 0.000000
-2.771359 2.076342 0.000000
0.372351 2.496043 0.000000
0.483931 2.417003 0.000000
0.563056 2.319108 0.000000
0.634514 2.195623 0.000000
0.667574 2.066966 0.000000
0.683314 1.921914 0.000000
0.660680 1.788729 0.000000
0.613284 1.651523 0.000000
0.528231 1.543321 0.000000
0.408431 1.445252 0.000000
0.249178 1.392667 0.000000
0.038725 1.366031 0.000000
-0.218214 1.398556 0.000000
-0.553006 1.473104 0.000000
-0.948089 1.608994 0.000000
-1.454840 1.797572 0.000000
-2.034190 2.015505 0.000000
-2.716377 2.296707 0.000000
-3.492083 2.586410 0.000000
0.571304 2.917039 0.000000
0.674776 2.837544 0.000000
0.765702 2.734483 0.000000
0.812541 2.622147 0.000000
0.836476 2.493542 0.000000
0.815619 2.372141 0.000000
0.764854 2.245944 0.000000
0.669959 2.143187 0.000000
0.536564 2.048154 0.000000
0.357903 1.991081 0.000000
0.127661 1.954655 0.000000
-0.152492 1.967043 0.000000
-0.503237 2.012110 0.000000
-0.912048 2.107857 0.000000
-1.412482 2.244806 0.000000
-1.977836 2.416339 0.000000
-2.635486 2.637346 0.000000
-3.367503 2.875334 0.000000
-4.171775 3.168893 0.000000
0.759406 3.374599 0.000000
0.871033 3.294164 0.000000
0.933683 3.201702 0.000000
0.968295 3.093304 0.000000
0.952560 2.987357 0.000000
0.902477 2.875413 0.000000
0.803025 2.781182 0.000000
0.662223 2.691956 0.000000
0.471873 2.633532 0.000000
0.230082 2.590884 0.000000
-0.063776 2.588335 0.000000
-0.422702 2.611188 0.000000
-0.838190 2.676572 0.000000
-1.332798 2.774753 0.000000
-1.887900 2.907334 0.000000
-2.525718 3.079666 0.000000
-3.228794 3.274235 0.000000
-4.002529 3.513715 0.000000
-4.851757 3.780991 0.000000
0.948499 3.880484 0.000000
1.028443 3.806382 0.000000
1.075961 3.718763 0.000000
1.068486 3.629707 0.000000
1.022807 3.533627 0.000000
0.923525 3.449798 0.000000
0.780659 3.368399 0.000000
0.585039 3.311278 0.000000
0.338300 3.265754 0.000000
0.038028 3.252964 0.000000
-0.323144 3.259852 0.000000
-0.739902 3.302593 0.000000
-1.227357 3.371605 0.000000
-1.772415 3.472683 0.000000
-2.392236 3.606116 0.000000
-3.072220 3.763978 0.000000
-3.820854 3.959015 0.000000
-4.633900 4.177541 0.000000
-5.510175 4.440888 0.000000
1.097506 4.441782 0.000000
1.159247 4.371154 0.000000
1.162557 4.297805 0.000000
1.124402 4.217531 0.000000
1.029253 4.144801 0.000000
0.888701 4.072396 0.000000
0.692963 4.018490 0.000000
0.446445 3.972750 0.000000
0.145347 3.953487 0.000000
-0.213484 3.949386 0.000000
-0.627249 3.975475 0.000000
-1.105695 4.022664 0.000000
-1.639701 4.098819 0.000000
-2.242050 4.201496 0.000000
-2.901165 4.328654 0.000000
-3.626016 4.486950 0.000000
-4.409808 4.667428 0.000000
-5.253355 4.883241 0.000000
-6.163173 5.132101 0.000000
1.220213 5.055906 0.000000
1.235753 4.992941 0.000000
1.207401 4.926198 0.000000
1.119487 4.863925 0.000000
0.984662 4.800729 0.000000
0.792811 4.751114 0.000000
0.550468 4.706990 0.000000
0.252793 4.684021 0.000000
-0.100178 4.672670 0.000000
-0.507611 4.686649 0.000000
-0.975233 4.717616 0.000000
-1.496887 4.774303 0.000000
-2.081702 4.852852 0.000000
-2.720766 4.954754 0.000000
-3.422144 5.082804 0.000000
-4.178972 5.232230 0.000000
-4.994034 5.411080 0.000000
-5.867180 5.614811 0.000000
-6.800242 5.857466 0.000000
1.290592 5.719714 0.000000
1.273215 5.660596 0.000000
1.194719 5.606202 0.000000
1.068119 5.551285 0.000000
0.883150 5.506161 0.000000
0.647913 5.464650 0.000000
0.356835 5.439813 0.000000
0.012362 5.423864 0.000000
-0.386182 5.429062 0.000000
-0.841456 5.448004 0.000000
-1.349549 5.489552 0.000000
-1.916587 5.549243 0.000000
-2.535877 5.630612 0.000000
-3.214005 5.734016 0.000000
-3.944847 5.857733 0.000000
-4.732163 6.006525 0.000000
-5.573551 6.176572 0.000000
-6.469788 6.375839 0.000000
-7.427390 6.608027 0.000000
1.324191 6.424775 0.000000
1.256320 6.372109 0.000000
1.139609 6.322765 0.000000
0.963659 6.281294 0.000000
0.737610 6.242577 0.000000
0.455426 6.216890 0.000000
0.121354 6.198078 0.000000
-0.266415 6.196834 0.000000
-0.708185 6.206809 0.000000
-1.201761 6.236530 0.000000
-1.750815 6.281456 0.000000
-2.350459 6.346204 0.000000
-3.005653 6.429651 0.000000
-3.711243 6.532138 0.000000
-4.471041 6.656112 0.000000
-5.282087 6.799293 0.000000
-6.145774 6.966441 0.000000
-7.063437 7.157094 0.000000
-8.039132 7.382052 0.000000
1.306186 7.164874 0.000000
1.200270 7.115097 0.000000
1.034784 7.074782 0.000000
0.819332 7.038081 0.000000
0.547641 7.011813 0.000000
0.225268 6.991114 0.000000
-0.150408 6.984962 0.000000
-0.577886 6.988117 0.000000
-1.056286 7.008461 0.000000
-1.587287 7.041717 0.000000
-2.167450 7.092961 0.000000
-2.800163 7.160251 0.000000
-3.481243 7.245241 0.000000
-4.214005 7.348758 0.000000
-4.995509 7.469877 0.000000
-5.827717 7.611480 0.000000
-6.710226 7.772279 0.000000
-7.644610 7.957516 0.000000
-8.637353 8.173303 0.000000
1.251427 7.931074 0.000000
1.097356 7.886097 0.000000
0.893444 7.849039 0.000000
0.633329 7.821580 0.000000
0.323482 7.799285 0.000000
-0.039238 7.789116 0.000000
-0.451973 7.786872 0.000000
-0.914823 7.799574 0.000000
-1.427873 7.823435 0.000000
-1.988831 7.863573 0.000000
-2.599659 7.917690 0.000000
-3.257048 7.988213 0.000000
-3.963547 8.074887 0.000000
-4.716465 8.177785 0.000000
-5.517870 8.298426 0.000000
-6.366834 8.435872 0.000000
-7.264721 8.592898 0.000000
-8.213642 8.770749 0.000000
-9.218991 8.978613 0.000000
1.152156 8.717535 0.000000
0.960507 8.674581 0.000000
0.712773 8.643803 0.000000
0.415970 8.619380 0.000000
0.066731 8.605494 0.000000
-0.331074 8.598691 0.000000
-0.778242 8.604917 0.000000
-1.273605 8.620994 0.000000
-1.815760 8.651803 0.000000
-2.405426 8.695020 0.000000
-3.040041 8.753460 0.000000
-3.721282 8.826203 0.000000
-4.446781 8.913998 0.000000
-5.218360 9.017342 0.000000
-6.034925 9.135771 0.000000
-6.898021 9.270834 0.000000
-7.808367 9.422350 0.000000
-8.768305 9.594090 0.000000
-9.784328 9.793063 0.000000
1.020830 9.516847 0.000000
0.786304 9.477436 0.000000
0.502992 9.448870 0.000000
0.167581 9.430824 0.000000
-0.215282 9.419762 0.000000
-0.646812 9.420208 0.000000
-1.124877 9.429582 0.000000
-1.648737 9.452325 0.000000
-2.218067 9.486311 0.000000
-2.830907 9.534479 0.000000
-3.488062 9.595567 0.000000
-4.187480 9.670742 0.000000
-4.930520 9.759770 0.000000
-5.716055 9.862557 0.000000
-6.545625 9.979778 0.000000
-7.419535 10.111073 0.000000
-8.339512 10.258068 0.000000
-9.308192 10.422682 0.000000
-10.331637 10.613202 0.000000
0.853850 10.324457 0.000000
0.584730 10.286650 0.000000
0.263561 10.262582 0.000000
-0.104376 10.246850 0.000000
-0.520403 10.241759 0.000000
-0.981627 10.245073 0.000000
-1.487767 10.260592 0.000000
-2.037644 10.286518 0.000000
-2.629764 10.325730 0.000000
-3.264115 10.376876 0.000000
-3.938909 10.441348 0.000000
-4.654928 10.518433 0.000000
-5.411050 10.608282 0.000000
-6.208603 10.710880 0.000000
-7.047705 10.825888 0.000000
-7.930058 10.954013 0.000000
-8.857160 11.095524 0.000000
-9.831913 11.253419 0.000000
-10.860720 11.434985 0.000000
0.660818 11.134763 0.000000
0.354742 11.099738 0.000000
0.001930 11.077526 0.000000
-0.398674 11.066495 0.000000
-0.843502 11.063960 0.000000
-1.332510 11.072739 0.000000
-1.863827 11.091366 0.000000
-2.436296 11.122522 0.000000
-3.049176 11.164948 0.000000
-3.700873 11.220132 0.000000
-4.391544 11.287098 0.000000
-5.120057 11.366138 0.000000
-5.887374 11.456707 0.000000
-6.693478 11.558470 0.000000
-7.540003 11.671484 0.000000
-8.428161 11.795597 0.000000
-9.360135 11.931844 0.000000
-10.338916 12.082440 0.000000
-11.370700 12.255180 0.000000
0.440533 11.944390 0.000000
0.103652 11.910900 0.000000
-0.281298 11.892183 0.000000
-0.710026 11.883378 0.000000
-1.182419 11.885528 0.000000
-1.696020 11.897266 0.000000
-2.249872 11.920916 0.000000
-2.842609 11.955428 0.000000
-3.472754 12.002297 0.000000
-4.139836 12.060469 0.000000
-4.842674 12.130309 0.000000
-5.581748 12.210897 0.000000
-6.356898 12.301858 0.000000
-7.169555 12.402696 0.000000
-8.020807 12.513033 0.000000
-8.912776 12.633124 0.000000
-9.847570 12.763486 0.000000
-10.828418 12.906810 0.000000
-11.861409 13.070489 0.000000
0.200044 12.749244 0.000000
-0.168291 12.718146 0.000000
-0.580803 12.701330 0.000000
-1.036892 12.696375 0.000000
-1.533486 12.701266 0.000000
-2.069662 12.717653 0.000000
-2.643515 12.744699 0.000000
-3.253613 12.783842 0.000000
-3.898888 12.834099 0.000000
-4.578049 12.895870 0.000000
-5.291027 12.968017 0.000000
-6.037464 13.050094 0.000000
-6.818460 13.141140 0.000000
-7.634970 13.240545 0.000000
-8.489080 13.347990 0.000000
-9.382790 13.463451 0.000000
-10.318715 13.587791 0.000000
-11.300025 13.723487 0.000000
-12.332596 13.878161 0.000000
-0.060515 13.546819 0.000000
-0.455843 13.517374 0.000000
-0.895459 13.503574 0.000000
-1.375485 13.501079 0.000000
-1.894747 13.510113 0.000000
-2.450841 13.529827 0.000000
-3.042296 13.561499 0.000000
-3.667495 13.604317 0.000000
-4.324981 13.658714 0.000000
-5.014093 13.723477 0.000000
-5.734207 13.798089 0.000000
-6.485970 13.881226 0.000000
-7.270144 13.972022 0.000000
-8.088669 14.069627 0.000000
-8.943549 14.173627 0.000000
-9.837452 14.284165 0.000000
-10.772978 14.402040 0.000000
-11.753444 14.530012 0.000000
-12.784345 14.675640 0.000000
-0.336080 14.334157 0.000000
-0.758114 14.306959 0.000000
-1.221455 14.295297 0.000000
-1.724245 14.296342 0.000000
-2.263479 14.308520 0.000000
-2.837522 14.332676 0.000000
-3.444253 14.368180 0.000000
-4.081997 14.415496 0.000000
-4.749489 14.473473 0.000000
-5.445757 14.541553 0.000000
-6.170895 14.618165 0.000000
-6.925372 14.702188 0.000000
-7.710852 14.792276 0.000000
-8.529290 14.887608 0.000000
-9.383439 14.987754 0.000000
-10.276025 15.092899 0.000000
-11.210019 15.204070 0.000000
-12.188582 15.324130 0.000000
-13.216897 15.460822 0.000000
-0.625843 15.109377 0.000000
-1.071349 15.084036 0.000000
-1.557499 15.075262 0.000000
-2.080397 15.079158 0.000000
-2.637990 15.095427 0.000000
-3.227654 15.123422 0.000000
-3.847442 15.163589 0.000000
-4.495491 15.214948 0.000000
-5.170406 15.276957 0.000000
-5.871644 15.347923 0.000000
-6.599262 15.426504 0.000000
-7.354511 15.510919 0.000000
-8.139188 15.599918 0.000000
-8.956025 15.692496 0.000000
-9.807929 15.788339 0.000000
-10.698133 15.887754 0.000000
-11.629608 15.991950 0.000000
-12.605566 16.104041 0.000000
-13.630657 16.231933 0.000000
-0.926178 15.870357 0.000000
-1.394414 15.847285 0.000000
-1.900824 15.840988 0.000000
-2.442505 15.848482 0.000000
-3.016192 15.868433 0.000000
-3.619570 15.901055 0.000000
-4.250191 15.945570 0.000000
-4.906177 16.001513 0.000000
-5.586276 16.067209 0.000000
-6.290012 16.141156 0.000000
-7.018080 16.221224 0.000000
-7.771985 16.305737 0.000000
-8.554297 16.393127 0.000000
-9.368010 16.482546 0.000000
-10.216618 16.573700 0.000000
-11.103473 16.667107 0.000000
-12.031807 16.764178 0.000000
-13.004640 16.868298 0.000000
-14.026243 16.987621 0.000000
-1.236010 16.615685 0.000000
-1.724596 16.594724 0.000000
-2.250171 16.591437 0.000000
-2.808487 16.602290 0.000000
-3.396645 16.626623 0.000000
-4.011587 16.663703 0.000000
-4.650897 16.713161 0.000000
-5.312565 16.773469 0.000000
-5.995456 16.843059 0.000000
-6.699567 16.919558 0.000000
-7.425958 17.000895 0.000000
-8.176886 17.084969 0.000000
-8.955302 17.170388 0.000000
-9.764833 17.256245 0.000000
-10.609186 17.342473 0.000000
-11.492085 17.429707 0.000000
-12.416773 17.519623 0.000000
-13.386281 17.615868 0.000000
-14.404343 17.726920 0.000000
-1.552728 17.343858 0.000000
-2.060747 17.325315 0.000000
-2.603500 17.324933 0.000000
-3.177087 17.339727 0.000000
-3.777698 17.368406 0.000000
-4.402296 17.410559 0.000000
-5.048074 17.464887 0.000000
-5.713122 17.529868 0.000000
-6.396592 17.603014 0.000000
-7.098925 17.681914 0.000000
-7.821910 17.763979 0.000000
-8.568321 17.847273 0.000000
-9.341772 17.930302 0.000000
-10.146189 18.012412 0.000000
-10.985692 18.093586 0.000000
-11.864121 18.174683 0.000000
-12.784929 18.257538 0.000000
-13.751026 18.346122 0.000000
-14.765825 18.449260 0.000000
-1.875232 18.053833 0.000000
-2.400891 18.037709 0.000000
-2.959687 18.040668 0.000000
-3.546709 18.059462 0.000000
-4.158115 18.093086 0.000000
-4.790247 18.140388 0.000000
-5.440304 18.199991 0.000000
-6.106447 18.269435 0.000000
-6.788299 18.346051 0.000000
-7.487003 18.426815 0.000000
-8.205016 18.509257 0.000000
-8.945821 18.591320 0.000000
-9.713428 18.671801 0.000000
-10.512175 18.750083 0.000000
-11.346339 18.826351 0.000000
-12.220027 18.901506 0.000000
-13.136774 18.977587 0.000000
-14.099599 19.058812 0.000000
-15.111557 19.154458 0.000000
-2.201625 18.744567 0.000000
-2.743989 18.731131 0.000000
-3.317209 18.737543 0.000000
-3.916272 18.760879 0.000000
-4.536523 18.799650 0.000000
-5.174152 18.852597 0.000000
-5.826173 18.917425 0.000000
-6.491154 18.991328 0.000000
-7.169380 19.070900 0.000000
-7.862823 19.153138 0.000000
-8.574734 19.235439 0.000000
-9.309119 19.316090 0.000000
-10.070397 19.393963 0.000000
-10.863072 19.468666 0.000000
-11.691648 19.540365 0.000000
-12.560357 19.610044 0.000000
-13.473008 19.679783 0.000000
-14.432730 19.754080 0.000000
-15.442514 19.842683 0.000000
-2.530914 19.415319 0.000000
-3.088596 19.404692 0.000000
-3.675111 19.414994 0.000000
-4.284506 19.443157 0.000000
-4.911782 19.487643 0.000000
-5.552632 19.546370 0.000000
-6.204299 19.616534 0.000000
-6.865920 19.694437 0.000000
-7.538759 19.776520 0.000000
-8.225726 19.859612 0.000000
-8.930775 19.941506 0.000000
-9.658349 20.020650 0.000000
-10.413041 20.096215 0.000000
-11.199495 20.167803 0.000000
-12.022286 20.235603 0.000000
-12.885888 20.300475 0.000000
-13.794372 20.364519 0.000000
-14.751264 20.432405 0.000000
-15.759616 20.514445 0.000000
-2.861723 20.065390 0.000000
-3.433843 20.057864 0.000000
-4.032243 20.072358 0.000000
-4.650440 20.105939 0.000000
-5.282606 20.156464 0.000000
-5.924339 20.221244 0.000000
-6.573243 20.296402 0.000000
-7.229530 20.377816 0.000000
-7.895611 20.461657 0.000000
-8.575356 20.545183 0.000000
-9.273248 20.626474 0.000000
-9.993933 20.704397 0.000000
-10.742053 20.778186 0.000000
-11.522234 20.847484 0.000000
-12.339153 20.912296 0.000000
-13.197474 20.973317 0.000000
-14.101738 21.032486 0.000000
-15.056008 21.094604 0.000000
-16.063813 21.170555 0.000000
-3.193231 20.694289 0.000000
-3.778691 20.690107 0.000000
-4.387796 20.709333 0.000000
-5.012943 20.748810 0.000000
-5.647744 20.805849 0.000000
-6.287756 20.876540 0.000000
-6.931617 20.956211 0.000000
-7.580936 21.040235 0.000000
-8.239453 21.125194 0.000000
-8.911757 21.208789 0.000000
-9.602603 21.289678 0.000000
-10.316612 21.366910 0.000000
-11.058324 21.439827 0.000000