# vtk DataFile Version 2.0
cantilever_Q4P1_mix
ASCII
DATASET POLYDATA
POINTS 1891 float
0.000000 0.000000 0.000000
48.000000 44.000000 0.000000
48.000000 60.000000 0.000000
0.000000 44.000000 0.000000
2.415003 2.213752 0.000000
4.715005 4.322088 0.000000
6.905484 6.330027 0.000000
8.991654 8.242350 0.000000
10.978483 10.063609 0.000000
12.870701 11.798142 0.000000
14.672813 13.450078 0.000000
16.389110 15.023351 0.000000
18.023679 16.521706 0.000000
19.580411 17.948710 0.000000
21.063014 19.307762 0.000000
22.475016 20.602098 0.000000
23.819780 21.834798 0.000000
25.100507 23.008798 0.000000
26.320248 24.126894 0.000000
27.481905 25.191746 0.000000
28.588246 26.205892 0.000000
29.641903 27.171745 0.000000
30.645387 28.091605 0.000000
31.601086 28.967662 0.000000
32.511275 29.802002 0.000000
33.378121 30.596611 0.000000
34.203690 31.353382 0.000000
34.989945 32.074117 0.000000
35.738760 32.760530 0.000000
36.451917 33.414258 0.000000
37.131114 34.036855 0.000000
37.777969 34.629805 0.000000
38.394021 35.194519 0.000000
38.980737 35.732342 0.000000
39.539514 36.244554 0.000000
40.071683 36.732376 0.000000
40.578510 37.196967 0.000000
41.061203 37.639436 0.000000
41.520910 38.060834 0.000000
41.958727 38.462166 0.000000
42.375695 38.844387 0.000000
42.772807 39.208407 0.000000
43.151010 39.555092 0.000000
43.511202 39.885269 0.000000
43.854243 40.199723 0.000000
44.180948 40.499203 0.000000
44.492096 40.784422 0.000000
44.788428 41.056059 0.000000
45.070648 41.314761 0.000000
45.339430 41.561144 0.000000
45.595412 41.795794 0.000000
45.839205 42.019271 0.000000
46.071388 42.232106 0.000000
46.292515 42.434806 0.000000
46.503112 42.627853 0.000000
46.703681 42.811708 0.000000
46.894699 42.986808 0.000000
47.076621 43.153569 0.000000
47.249880 43.312390 0.000000
47.414888 43.463648 0.000000
47.572039 43.607703 0.000000
47.721707 43.744898 0.000000
47.864247 43.875560 0.000000
48.000000 44.533333 0.000000
48.000000 45.066667 0.000000
48.000000 45.600000 0.000000
48.000000 46.133333 0.000000
48.000000 46.666667 0.000000
48.000000 47.200000 0.000000
48.000000 47.733333 0.000000
48.000000 48.266667 0.000000
48.000000 48.800000 0.000000
48.000000 49.333333 0.000000
48.000000 49.866667 0.000000
48.000000 50.400000 0.000000
48.000000 50.933333 0.000000
48.000000 51.466667 0.000000
48.000000 52.000000 0.000000
48.000000 52.533333 0.000000
48.000000 53.066667 0.000000
48.000000 53.600000 0.000000
48.000000 54.133333 0.000000
48.000000 54.666667 0.000000
48.000000 55.200000 0.000000
48.000000 55.733333 0.000000
48.000000 56.266667 0.000000
48.000000 56.800000 0.000000
48.000000 57.333333 0.000000
48.000000 57.866667 0.000000
48.000000 58.400000 0.000000
48.000000 58.933333 0.000000
48.000000 59.466667 0.000000
47.864247 59.954749 0.000000
47.721707 59.907236 0.000000
47.572039 59.857346 0.000000
47.414888 59.804963 0.000000
47.249880 59.749960 0.000000
47.076621 59.692207 0.000000
46.894699 59.631566 0.000000
46.703681 59.567894 0.000000
46.503112 59.501037 0.000000
46.292515 59.430838 0.000000
46.071388 59.357129 0.000000
45.839205 59.279735 0.000000
45.595412 59.198471 0.000000
45.339430 59.113143 0.000000
45.070648 59.023549 0.000000
44.788428 58.929476 0.000000
44.492096 58.830699 0.000000
44.180948 58.726983 0.000000
43.854243 58.618081 0.000000
43.511202 58.503734 0.000000
43.151010 58.383670 0.000000
42.772807 58.257602 0.000000
42.375695 58.125232 0.000000
41.958726 57.986242 0.000000
41.520910 57.840303 0.000000
41.061203 57.687068 0.000000
40.578510 57.526170 0.000000
40.071683 57.357228 0.000000
39.539514 57.179838 0.000000
38.980737 56.993579 0.000000
38.394021 56.798007 0.000000
37.777969 56.592656 0.000000
37.131114 56.377038 0.000000
36.451917 56.150639 0.000000
35.738760 55.912920 0.000000
34.989945 55.663315 0.000000
34.203690 55.401230 0.000000
33.378121 55.126040 0.000000
32.511275 54.837092 0.000000
31.601085 54.533695 0.000000
30.645387 54.215129 0.000000
29.641903 53.880634 0.000000
28.588246 53.529415 0.000000
27.481905 53.160635 0.000000
26.320248 52.773416 0.000000
25.100507 52.366836 0.000000
23.819780 51.939927 0.000000
22.475016 51.491672 0.000000
21.063014 51.021005 0.000000
19.580411 50.526804 0.000000
18.023679 50.007893 0.000000
16.389110 49.463037 0.000000
14.672813 48.890938 0.000000
12.870701 48.290234 0.000000
10.978483 47.659494 0.000000
8.991654 46.997218 0.000000
6.905484 46.301828 0.000000
4.715005 45.571668 0.000000
2.415003 44.805001 0.000000
0.000000 42.533333 0.000000
0.000000 41.066667 0.000000
0.000000 39.600000 0.000000
0.000000 38.133333 0.000000
0.000000 36.666667 0.000000
0.000000 35.200000 0.000000
0.000000 33.733333 0.000000
0.000000 32.266667 0.000000
0.000000 30.800000 0.000000
0.000000 29.333333 0.000000
0.000000 27.866667 0.000000
0.000000 26.400000 0.000000
0.000000 24.933333 0.000000
0.000000 23.466667 0.000000
0.000000 22.000000 0.000000
0.000000 20.533333 0.000000
0.000000 19.066667 0.000000
0.000000 17.600000 0.000000
0.000000 16.133333 0.000000
0.000000 14.666667 0.000000
0.000000 13.200000 0.000000
0.000000 11.733333 0.000000
0.000000 10.266667 0.000000
0.000000 8.800000 0.000000
0.000000 7.333333 0.000000
0.000000 5.866667 0.000000
0.000000 4.400000 0.000000
0.000000 2.933333 0.000000
0.000000 1.466667 0.000000
2.355989 3.580784 0.000000
2.340181 4.987515 0.000000
2.336165 6.405087 0.000000
2.335222 7.825485 0.000000
2.335016 9.246560 0.000000
2.334974 10.667785 0.000000
2.334965 12.089042 0.000000
2.334964 13.510305 0.000000
2.334963 14.931570 0.000000
2.334963 16.352834 0.000000
2.334963 17.774099 0.000000
2.334963 19.195363 0.000000
2.334963 20.616628 0.000000
2.334963 22.037892 0.000000
2.334963 23.459157 0.000000
2.334963 24.880422 0.000000
2.334963 26.301686 0.000000
2.334963 27.722951 0.000000
2.334963 29.144215 0.000000
2.334963 30.565480 0.000000
2.334963 31.986745 0.000000
2.334963 33.408009 0.000000
2.334963 34.829274 0.000000
2.334963 36.250538 0.000000
2.334963 37.671803 0.000000
2.334964 39.093068 0.000000
2.335038 40.514357 0.000000
2.336808 41.936217 0.000000
2.350781 43.362180 0.000000
4.640577 5.630770 0.000000
4.614786 6.984182 0.000000
4.607184 8.354324 0.000000
4.605170 9.729606 0.000000
4.604680 11.106289 0.000000
4.604568 12.483320 0.000000
4.604544 13.860432 0.000000
4.604539 15.237561 0.000000
4.604538 16.614694 0.000000
4.604538 17.991828 0.000000
4.604538 19.368962 0.000000
4.604538 20.746096 0.000000
4.604538 22.123230 0.000000
4.604538 23.500364 0.000000
4.604538 24.877498 0.000000
4.604538 26.254632 0.000000
4.604538 27.631766 0.000000
4.604538 29.008900 0.000000
4.604538 30.386034 0.000000
4.604538 31.763168 0.000000
4.604538 33.140302 0.000000
4.604538 34.517436 0.000000
4.604538 35.894570 0.000000
4.604538 37.271704 0.000000
4.604538 38.648838 0.000000
4.604550 40.025976 0.000000
4.604888 41.403224 0.000000
4.608847 42.781690 0.000000
4.632237 44.166694 0.000000
6.828720 7.594097 0.000000
6.799748 8.902146 0.000000
6.790281 10.228142 0.000000
6.787521 11.560308 0.000000
6.786785 12.894337 0.000000
6.786602 14.228874 0.000000
6.786559 15.563541 0.000000
6.786549 16.898238 0.000000
6.786547 18.232942 0.000000
6.786547 19.567648 0.000000
6.786547 20.902354 0.000000
6.786547 22.237060 0.000000
6.786547 23.571766 0.000000
6.786547 24.906472 0.000000
6.786547 26.241178 0.000000
6.786547 27.575884 0.000000
6.786547 28.910590 0.000000
6.786547 30.245296 0.000000
6.786547 31.580002 0.000000
6.786547 32.914708 0.000000
6.786547 34.249414 0.000000
6.786547 35.584120 0.000000
6.786547 36.918826 0.000000
6.786547 38.253533 0.000000
6.786548 39.588239 0.000000
6.786592 40.922960 0.000000
6.787214 42.257875 0.000000
6.792476 43.594353 0.000000
6.819030 44.938003 0.000000
8.916649 9.467447 0.000000
8.887441 10.734698 0.000000
8.877427 12.019616 0.000000
8.874327 13.310896 0.000000
8.873443 14.604217 0.000000
8.873208 15.898134 0.000000
8.873149 17.192213 0.000000
8.873135 18.486334 0.000000
8.873131 19.780464 0.000000
8.873131 21.074597 0.000000
8.873130 22.368731 0.000000
8.873130 23.662864 0.000000
8.873130 24.956998 0.000000
8.873130 26.251132 0.000000
8.873130 27.545265 0.000000
8.873130 28.839399 0.000000
8.873130 30.133532 0.000000
8.873130 31.427666 0.000000
8.873130 32.721799 0.000000
8.873130 34.015933 0.000000
8.873130 35.310067 0.000000
8.873130 36.604200 0.000000
8.873130 37.898334 0.000000
8.873131 39.192467 0.000000
8.873135 40.486602 0.000000
8.873212 41.780762 0.000000
8.874002 43.075162 0.000000
8.879709 44.371218 0.000000
8.906627 45.674424 0.000000
10.906443 11.252722 0.000000
10.878066 12.482029 0.000000
10.868135 13.728317 0.000000
10.864963 14.980826 0.000000
10.864022 16.235389 0.000000
10.863759 17.490576 0.000000
10.863690 18.745941 0.000000
10.863672 20.001353 0.000000
10.863668 21.256778 0.000000
10.863667 22.512206 0.000000
10.863667 23.767634 0.000000
10.863667 25.023063 0.000000
10.863667 26.278492 0.000000
10.863667 27.533920 0.000000
10.863667 28.789349 0.000000
10.863667 30.044778 0.000000
10.863667 31.300206 0.000000
10.863667 32.555635 0.000000
10.863667 33.811064 0.000000
10.863667 35.066493 0.000000
10.863667 36.321921 0.000000
10.863667 37.577350 0.000000
10.863667 38.832779 0.000000
10.863667 40.088207 0.000000
10.863676 41.343639 0.000000
10.863772 42.599100 0.000000
10.864624 43.854816 0.000000
10.870341 45.112172 0.000000
10.896567 46.376443 0.000000
12.801900 12.953347 0.000000
12.774686 14.146837 0.000000
12.765083 15.356540 0.000000
12.761972 16.572219 0.000000
12.761029 17.789893 0.000000
12.760758 19.008187 0.000000
12.760684 20.226662 0.000000
12.760664 21.445186 0.000000
12.760660 22.663725 0.000000
12.760658 23.882266 0.000000
12.760658 25.100809 0.000000
12.760658 26.319352 0.000000
12.760658 27.537894 0.000000
12.760658 28.756437 0.000000
12.760658 29.974980 0.000000
12.760658 31.193523 0.000000
12.760658 32.412065 0.000000
12.760658 33.630608 0.000000
12.760658 34.849151 0.000000
12.760658 36.067694 0.000000
12.760658 37.286236 0.000000
12.760658 38.504779 0.000000
[...]
POINT_DATA 1891
VECTORS U float
-0.000659 0.001864 0.000000
-5.468160 25.413019 0.000000
-19.843789 27.490451 0.000000
-0.000659 0.001864 0.000000
0.012141 0.591641 0.000000
0.019167 1.104628 0.000000
0.043826 1.562693 0.000000
0.094498 1.965145 0.000000
0.193355 2.339150 0.000000
0.321098 2.705937 0.000000
0.480824 3.087558 0.000000
0.645473 3.495267 0.000000
0.815190 3.938219 0.000000
0.966861 4.417150 0.000000
1.103982 4.932514 0.000000
1.209955 5.479537 0.000000
1.292022 6.054873 0.000000
1.338994 6.652199 0.000000
1.360315 7.267380 0.000000
1.348357 7.894567 0.000000
1.313173 8.530121 0.000000
1.249242 9.169340 0.000000
1.166172 9.809399 0.000000
1.059686 10.446766 0.000000
0.938410 11.079355 0.000000
0.798876 11.704617 0.000000
0.648529 12.321039 0.000000
0.484518 12.926842 0.000000
0.313082 13.520939 0.000000
0.131904 14.102140 0.000000
-0.053912 14.669680 0.000000
-0.246204 15.222813 0.000000
-0.440896 15.761024 0.000000
-0.639389 16.283904 0.000000
-0.838507 16.791138 0.000000
-1.039277 17.282566 0.000000
-1.239279 17.758041 0.000000
-1.439232 18.217584 0.000000
-1.637339 18.661186 0.000000
-1.834079 19.089000 0.000000
-2.028148 19.501133 0.000000
-2.219855 19.897827 0.000000
-2.408274 20.279284 0.000000
-2.593598 20.645810 0.000000
-2.775190 20.997678 0.000000
-2.953171 21.335240 0.000000
-3.127117 21.658820 0.000000
-3.297111 21.968802 0.000000
-3.462885 22.265547 0.000000
-3.624507 22.549457 0.000000
-3.781825 22.820919 0.000000
-3.934908 23.080346 0.000000
-4.083688 23.328140 0.000000
-4.228247 23.564721 0.000000
-4.368587 23.790502 0.000000
-4.504811 24.005906 0.000000
-4.636988 24.211357 0.000000
-4.765265 24.407289 0.000000
-4.889800 24.594142 0.000000
-5.010838 24.772382 0.000000
-5.128716 24.942497 0.000000
-5.243909 25.105078 0.000000
-5.357140 25.260953 0.000000
-5.918465 25.426514 0.000000
-6.331118 25.450193 0.000000
-6.730427 25.478469 0.000000
-7.121965 25.515093 0.000000
-7.509702 25.557364 0.000000
-7.895912 25.605576 0.000000
-8.282404 25.658719 0.000000
-8.670568 25.716568 0.000000
-9.061570 25.778553 0.000000
-9.456420 25.844376 0.000000
-9.856015 25.913623 0.000000
-10.261188 25.986003 0.000000
-10.672714 26.061171 0.000000
-11.091351 26.138852 0.000000
-11.517834 26.218742 0.000000
-11.952919 26.300580 0.000000
-12.397371 26.384086 0.000000
-12.852015 26.469016 0.000000
-13.317723 26.555106 0.000000
-13.795496 26.642133 0.000000
-14.286432 26.729847 0.000000
-14.791914 26.818062 0.000000
-15.313481 26.906533 0.000000
-15.853376 26.995144 0.000000
-16.414048 27.083632 0.000000
-17.000022 27.171993 0.000000
-17.615939 27.259920 0.000000
-18.274386 27.346879 0.000000
-18.989274 27.435564 0.000000
-19.756456 27.237698 0.000000
-19.664704 26.993828 0.000000
-19.569256 26.752809 0.000000
-19.470706 26.511677 0.000000
-19.369306 26.268568 0.000000
-19.265053 26.022149 0.000000
-19.157829 25.771393 0.000000
-19.047448 25.515474 0.000000
-18.933712 25.253690 0.000000
-18.816399 24.985425 0.000000
-18.695295 24.710117 0.000000
-18.570170 24.427245 0.000000
-18.440805 24.136306 0.000000
-18.306955 23.836815 0.000000
-18.168391 23.528291 0.000000
-18.024840 23.210261 0.000000
-17.876056 22.882244 0.000000
-17.721725 22.543768 0.000000
-17.561573 22.194349 0.000000
-17.395230 21.833511 0.000000
-17.222386 21.460767 0.000000
-17.042604 21.075649 0.000000
-16.855523 20.677679 0.000000
-16.660629 20.266412 0.000000
-16.457506 19.841404 0.000000
-16.245551 19.402260 0.000000
-16.024293 18.948607 0.000000
-15.793042 18.480140 0.000000
-15.551274 17.996603 0.000000
-15.298230 17.497830 0.000000
-15.033342 16.983743 0.000000
-14.755818 16.454372 0.000000
-14.465067 15.909877 0.000000
-14.160319 15.350541 0.000000
-13.840979 14.776833 0.000000
-13.506383 14.189332 0.000000
-13.155943 13.588880 0.000000
-12.789207 12.976388 0.000000
-12.405580 12.353130 0.000000
-12.004959 11.720359 0.000000
-11.586680 11.079840 0.000000
-11.151171 10.433156 0.000000
-10.697547 9.782627 0.000000
-10.227030 9.130107 0.000000
-9.738219 8.478570 0.000000
-9.233540 7.830009 0.000000
-8.710501 7.188218 0.000000
-8.173446 6.555049 0.000000
-7.617661 5.935467 0.000000
-7.050793 5.330543 0.000000
-6.463498 4.747305 0.000000
-5.869810 4.184371 0.000000
-5.250033 3.653532 0.000000
-4.632745 3.145524 0.000000
-3.971768 2.686735 0.000000
-3.336583 2.237427 0.000000
-2.597769 1.882669 0.000000
-1.968577 1.429498 0.000000
-0.984467 1.259937 0.000000
0.000659 -0.001864 0.000000
-0.000659 0.001864 0.000000
0.000659 -0.001864 0.000000
-0.000659 0.001864 0.000000
0.000659 -0.001864 0.000000
-0.000659 0.001864 0.000000
0.000659 -0.001864 0.000000
-0.000659 0.001864 0.000000
0.000659 -0.001864 0.000000
-0.000659 0.001864 0.000000
0.000659 -0.001864 0.000000
-0.000659 0.001864 0.000000
0.000659 -0.001864 0.000000
-0.000659 0.001864 0.000000
0.000659 -0.001864 0.000000
-0.000659 0.001864 0.000000
0.000659 -0.001864 0.000000
-0.000659 0.001864 0.000000
0.000659 -0.001864 0.000000
-0.000659 0.001864 0.000000
0.000659 -0.001864 0.000000
-0.000659 0.001864 0.000000
0.000659 -0.001864 0.000000
-0.000659 0.001864 0.000000
0.000659 -0.001864 0.000000
-0.000659 0.001864 0.000000
0.000659 -0.001864 0.000000
-0.000659 0.001864 0.000000
0.000659 -0.001864 0.000000
0.001987 0.564652 0.000000
0.005297 0.554565 0.000000
0.003354 0.551426 0.000000
0.010502 0.544024 0.000000
0.011886 0.536135 0.000000
0.020025 0.518439 0.000000
0.022186 0.498941 0.000000
0.029632 0.468232 0.000000
0.031254 0.436733 0.000000
0.037186 0.394471 0.000000
0.037692 0.353471 0.000000
0.041761 0.302973 0.000000
0.040956 0.256203 0.000000
0.043009 0.201503 0.000000
0.040849 0.153151 0.000000
0.040730 0.098542 0.000000
0.037169 0.053040 0.000000
0.034546 0.003089 0.000000
0.029392 -0.034649 0.000000
0.023508 -0.074664 0.000000
0.016192 -0.098503 0.000000
0.005327 -0.121479 0.000000
-0.005668 -0.122284 0.000000
-0.025761 -0.116562 0.000000
-0.044824 -0.077456 0.000000
-0.086668 -0.018712 0.000000
-0.129302 0.100778 0.000000
-0.243252 0.281426 0.000000
-0.387447 0.621112 0.000000
0.020078 1.078741 0.000000
0.021166 1.062851 0.000000
0.036555 1.045271 0.000000
0.048118 1.024465 0.000000
0.068344 0.992516 0.000000
0.082264 0.955083 0.000000
0.101412 0.904602 0.000000
0.113187 0.850002 0.000000
0.128169 0.783116 0.000000
0.135615 0.714963 0.000000
0.145009 0.636546 0.000000
0.147201 0.560411 0.000000
0.150367 0.476641 0.000000
0.146890 0.399057 0.000000
0.143344 0.316814 0.000000
0.133759 0.244980 0.000000
0.122645 0.171852 0.000000
0.105982 0.113916 0.000000
0.085439 0.058774 0.000000
0.059475 0.024760 0.000000
0.025470 -0.000875 0.000000
-0.014784 0.002885 0.000000
-0.071249 0.023714 0.000000
-0.137486 0.086860 0.000000
-0.238281 0.182148 0.000000
-0.360576 0.341162 0.000000
-0.566327 0.558519 0.000000
-0.830906 0.864395 0.000000
-1.347755 1.247630 0.000000
0.053537 1.532684 0.000000
0.080805 1.506168 0.000000
0.106151 1.476117 0.000000
0.141221 1.435056 0.000000
0.169648 1.386592 0.000000
0.202542 1.324581 0.000000
0.226434 1.256828 0.000000
0.251772 1.176561 0.000000
0.267251 1.093932 0.000000
0.282381 1.001254 0.000000
0.287600 0.910354 0.000000
0.291194 0.812608 0.000000
0.285158 0.721207 0.000000
0.276208 0.626644 0.000000
0.257887 0.543378 0.000000
0.234862 0.461132 0.000000
0.202381 0.395701 0.000000
0.162297 0.336230 0.000000
0.111880 0.300068 0.000000
0.048841 0.276076 0.000000
-0.027020 0.283470 0.000000
-0.124675 0.311259 0.000000
-0.240950 0.380608 0.000000
-0.396703 0.481030 0.000000
-0.583402 0.633668 0.000000
-0.844733 0.827330 0.000000
-1.157558 1.069381 0.000000
-1.608228 1.342424 0.000000
-2.089173 1.556177 0.000000
0.136195 1.933401 0.000000
0.177299 1.899251 0.000000
0.228470 1.855637 0.000000
0.272203 1.803499 0.000000
0.319149 1.737928 0.000000
0.355151 1.665507 0.000000
0.390527 1.580842 0.000000
0.413530 1.493165 0.000000
0.433672 1.396000 0.000000
0.441044 1.300344 0.000000
0.444001 1.198682 0.000000
0.434188 1.103409 0.000000
0.418440 1.006083 0.000000
0.389865 0.920336 0.000000
0.353310 0.836934 0.000000
0.303406 0.770703 0.000000
0.242326 0.711784 0.000000
0.166438 0.676195 0.000000
0.074134 0.653624 0.000000
-0.036059 0.661177 0.000000
-0.171384 0.688211 0.000000
-0.330275 0.752236 0.000000
-0.528721 0.842122 0.000000
-0.759702 0.973071 0.000000
-1.052578 1.132687 0.000000
-1.386338 1.324809 0.000000
-1.806793 1.538430 0.000000
-2.248472 1.740568 0.000000
-2.749815 2.005723 0.000000
0.251487 2.304093 0.000000
0.319188 2.263199 0.000000
0.378320 2.213613 0.000000
0.439033 2.151200 0.000000
0.486581 2.080954 0.000000
0.531215 1.998822 0.000000
0.560852 1.913005 0.000000
0.585069 1.818231 0.000000
0.593675 1.724571 0.000000
0.595135 1.625536 0.000000
0.580802 1.532612 0.000000
0.557667 1.438262 0.000000
0.518485 1.355157 0.000000
0.468349 1.274879 0.000000
0.401438 1.211147 0.000000
0.320365 1.154795 0.000000
0.220915 1.120441 0.000000
0.102373 1.098275 0.000000
-0.037445 1.103482 0.000000
-0.203843 1.125632 0.000000
-0.396026 1.179612 0.000000
-0.625661 1.254282 0.000000
-0.886652 1.362029 0.000000
-1.199045 1.491263 0.000000
-1.545496 1.646795 0.000000
-1.955150 1.821365 0.000000
-2.387513 2.002193 0.000000
-2.877485 2.222249 0.000000
-3.411052 2.426303 0.000000
0.404780 2.668762 0.000000
0.478862 2.624990 0.000000
0.552818 2.570266 0.000000
0.611307 2.507078 0.000000
0.664482 2.432423 0.000000
0.700008 2.353265 0.000000
0.727588 2.265518 0.000000
0.736839 2.178237 0.000000
0.736395 2.085932 0.000000
0.717391 1.999099 0.000000
0.687029 1.911038 0.000000
0.637807 1.833393 0.000000
0.575131 1.758448 0.000000
0.492867 1.698790 0.000000
0.394160 1.645829 0.000000
0.274427 1.612856 0.000000
0.133924 1.590504 0.000000
-0.029950 1.592365 0.000000
-0.220675 1.608346 0.000000
-0.437957 1.651551 0.000000
-0.690061 1.711283 0.000000
-0.971898 1.798578 0.000000
-1.297589 1.902957 0.000000
-1.653528 2.030429 0.000000
-2.060344 2.174920 0.000000
-2.491266 2.331862 0.000000
-2.973092 2.515694 0.000000
-3.483258 2.694675 0.000000
-4.026042 2.915040 0.000000
0.568337 3.047592 0.000000
0.654488 3.001644 0.000000
0.723235 2.947933 0.000000
0.784372 2.883677 0.000000
0.825304 2.814115 0.000000
0.855868 2.736231 0.000000
0.865570 2.657939 0.000000
0.863261 2.574738 0.000000
0.839938 2.496079 0.000000
0.803067 2.416075 0.000000
0.744968 2.345323 0.000000
0.671411 2.276778 0.000000
0.576053 2.221919 0.000000
0.462606 2.172719 0.000000
0.326247 2.141265 0.000000
0.168171 2.118670 0.000000
-0.014512 2.117228 0.000000
-0.223706 2.127319 0.000000
-0.459569 2.160786 0.000000
-0.727782 2.207560 0.000000
-1.024337 2.277907 0.000000
-1.359408 2.362279 0.000000
-1.722536 2.467438 0.000000
-2.129029 2.587501 0.000000
-2.559971 2.722029 0.000000
-3.035638 2.877084 0.000000
-3.535148 3.035279 0.000000
-4.068982 3.224369 0.000000
-4.643066 3.418273 0.000000
0.741594 3.453677 0.000000
0.819411 3.408315 0.000000
0.887850 3.355053 0.000000
0.933853 3.296266 0.000000
0.967268 3.229570 0.000000
0.977525 3.161506 0.000000
0.973711 3.088527 0.000000
0.946758 3.018977 0.000000
0.904419 2.947792 0.000000
0.838912 2.884507 0.000000
0.756385 2.822765 0.000000
0.650360 2.772983 0.000000
0.525106 2.727719 0.000000
0.375627 2.697976 0.000000
0.203972 2.675405 0.000000
0.007006 2.671217 0.000000
-0.215857 2.676350 0.000000
-0.465234 2.701682 0.000000
-0.744833 2.737809 0.000000
-1.051696 2.794435 0.000000
-1.393197 2.862741 0.000000
-1.761373 2.949870 0.000000
-2.167798 3.049884 0.000000
-2.598498 3.164737 0.000000
-3.069024 3.296237 0.000000
-3.562271 3.435403 0.000000
-4.090159 3.598352 0.000000
-4.647278 3.765189 0.000000
-5.232312 3.962819 0.000000
0.899769 3.894658 0.000000
0.974331 3.849742 0.000000
1.024963 3.800903 0.000000
1.061163 3.745320 0.000000
1.072227 3.687618 0.000000
1.067431 3.625038 0.000000
1.037692 3.564717 0.000000
0.991054 3.502421 0.000000
0.919682 3.446618 0.000000
0.830102 3.391664 0.000000
0.715740 3.346951 0.000000
0.581390 3.305667 0.000000
0.421914 3.277819 0.000000
0.240115 3.255645 0.000000
0.032624 3.249418 0.000000
-0.200058 3.250674 0.000000
-0.459000 3.269489 0.000000
-0.746376 3.297105 0.000000
-1.060185 3.342735 0.000000
-1.405704 3.398149 0.000000
-1.776932 3.470631 0.000000
-2.182661 3.554180 0.000000
-2.612315 3.652228 0.000000
-3.077992 3.764168 0.000000
-3.566054 3.885984 0.000000
-4.087846 4.026834 0.000000
-4.634506 4.173297 0.000000
-5.208281 4.343588 0.000000
-5.817916 4.527153 0.000000
1.045297 4.372694 0.000000
1.099630 4.329915 0.000000
1.138391 4.283683 0.000000
1.150493 4.235427 0.000000
1.145253 4.182664 0.000000
1.113581 4.131094 0.000000
1.063787 4.077276 0.000000
0.988018 4.028581 0.000000
0.893152 3.980107 0.000000
0.772551 3.940251 0.000000
0.631478 3.902861 0.000000
0.464674 3.877017 0.000000
0.275593 3.855578 0.000000
0.060636 3.847965 0.000000
-0.178792 3.846335 0.000000
-0.444200 3.860047 0.000000
-0.736534 3.880959 0.000000
-1.054642 3.917811 0.000000
-1.402164 3.962883 0.000000
-1.774656 4.023439 0.000000
-2.178765 4.093479 0.000000
-2.606399 4.177347 0.000000
-3.067042 4.272959 0.000000
-3.549861 4.379343 0.000000
-4.064859 4.501313 0.000000
-4.602902 4.630595 0.000000
-5.168669 4.779282 0.000000
-5.762334 4.936466 0.000000
-6.383328 5.119131 0.000000
1.160172 4.886907 0.000000
1.200813 4.845535 0.000000
1.213997 4.804409 0.000000
1.208744 4.760110 0.000000
1.175896 4.716324 0.000000
1.123964 4.670217 0.000000
1.045098 4.627983 0.000000
0.946488 4.585472 0.000000
0.821451 4.550092 0.000000
0.675662 4.516388 0.000000
0.503749 4.492544 0.000000
0.309723 4.472069 0.000000
0.089767 4.463586 0.000000
-0.153967 4.459875 0.000000
-0.423394 4.469625 0.000000
-0.718462 4.485287 0.000000
-1.038757 4.515127 0.000000
-1.386606 4.551892 0.000000
-1.758820 4.602718 0.000000
-2.160342 4.661670 0.000000
-2.584978 4.733635 0.000000
-3.040163 4.815603 0.000000
-3.517286 4.908517 0.000000
-4.024858 5.014396 0.000000
-4.554520 5.128617 0.000000
-5.112064 5.259069 0.000000
-5.694171 5.397061 0.000000
-6.301033 5.554168 0.000000
-6.940684 5.727654 0.000000
1.251002 5.433671 0.000000
1.264924 5.394736 0.000000
1.259882 5.356341 0.000000
1.226458 5.318800 0.000000
1.173230 5.279323 0.000000
1.092359 5.242698 0.000000
0.991293 5.205482 0.000000
0.863316 5.174073 0.000000
0.714459 5.143732 0.000000
0.539245 5.121766 0.000000
0.342155 5.102354 0.000000
0.119168 5.093348 0.000000
-0.126938 5.088157 0.000000
-0.398450 5.094818 0.000000
-0.694493 5.106360 0.000000
-1.015289 5.130566 0.000000
-1.362089 5.160633 0.000000
-1.732730 5.203487 0.000000
-2.130774 5.253320 0.000000
-2.551517 5.315311 0.000000
-3.000746 5.385868 0.000000
-3.471622 5.467166 0.000000
-3.971237 5.559372 0.000000
-4.492316 5.660387 0.000000
-5.040790 5.775066 0.000000
-5.612152 5.897361 0.000000
-6.208197 6.035409 0.000000
-6.830653 6.183746 0.000000
-7.480533 6.354328 0.000000
1.305738 6.008512 0.000000
1.300814 5.971043 0.000000
1.267218 5.937144 0.000000
1.213347 5.902768 0.000000
1.131351 5.870693 0.000000
1.028864 5.837983 0.000000
0.899159 5.809944 0.000000
0.748556 5.782554 0.000000
0.571489 5.762244 0.000000
0.372831 5.743872 0.000000
0.148373 5.734534 0.000000
-0.098583 5.728269 0.000000
-0.370659 5.732476 0.000000
-0.666290 5.740747 0.000000
-0.986248 5.760375 0.000000
-1.330889 5.784999 0.000000
-1.698898 5.821276 0.000000
-2.092697 5.863577 0.000000
-2.508781 5.917197 0.000000
-2.951578 5.978197 0.000000
-3.415684 6.049538 0.000000
-3.906915 6.130148 0.000000
-4.419101 6.219658 0.000000
-4.957800 6.320719 0.000000
-5.518285 6.429518 0.000000
-6.103518 6.551796 0.000000
-6.712534 6.682356 0.000000
-7.345432 6.828744 0.000000
-8.009105 6.992203 0.000000
1.333654 6.606036 0.000000
1.300072 6.570758 0.000000
1.246045 6.538956 0.000000
1.163618 6.510000 0.000000
1.060527 6.480856 0.000000
0.930054 6.455508 0.000000
0.778747 6.430589 0.000000
0.600970 6.411629 0.000000
0.401919 6.394175 0.000000
0.177215 6.384564 0.000000
-0.069402 6.377473 0.000000
-0.340850 6.379658 0.000000
-0.634986 6.385277 0.000000
-0.953053 6.401118 0.000000
-1.294658 6.421265 0.000000
-1.659191 6.452058 0.000000
-2.048123 6.488095 0.000000
-2.458923 6.534658 0.000000
-2.894888 6.587627 0.000000
-3.351785 6.650453 0.000000
-3.834305 6.721227 0.000000
-4.337305 6.800768 0.000000
-4.865743 6.890130 0.000000
-5.415116 6.987223 0.000000
-5.988912 7.095894 0.000000
-6.585049 7.212174 0.000000
-7.204366 7.341343 0.000000
-7.848873 7.481048 0.000000
-8.520844 7.640567 0.000000
1.326693 7.221200 0.000000
1.272874 7.187140 0.000000
1.190590 7.158918 0.000000
1.087547 7.132056 0.000000
0.957064 7.108597 0.000000
0.805866 7.085607 0.000000
0.628274 7.067635 0.000000
0.429741 7.050899 0.000000
0.205747 7.040975 0.000000
-0.039611 7.033173 0.000000
-0.309505 7.033612 0.000000
-0.601308 7.037011 0.000000
-0.916669 7.049641 0.000000
-1.254558 7.066040 0.000000
-1.614960 7.092196 0.000000
-1.998541 7.122970 0.000000
-2.403576 7.163538 0.000000
-2.832403 7.209725 0.000000
-3.281759 7.265259 0.000000
-3.755348 7.327676 0.000000
-4.248944 7.398606 0.000000
-4.766821 7.477945 0.000000
-5.304908 7.564894 0.000000
-5.866770 7.661785 0.000000
-6.449877 7.765907 0.000000
-7.055909 7.881131 0.000000
-7.684873 8.004518 0.000000
-8.337262 8.141215 0.000000
-9.019003 8.294512 0.000000
1.295032 7.848885 0.000000
1.213452 7.816665 0.000000
1.111043 7.789856 0.000000
0.981180 7.767155 0.000000
0.830732 7.745437 0.000000
0.654024 7.728032 0.000000
0.456714 7.711762 0.000000
0.234169 7.701408 0.000000
-0.009221 7.692919 0.000000
-0.276848 7.691762 0.000000
-0.565679 7.693226 0.000000
-0.877708 7.703053 0.000000
-1.211370 7.716244 0.000000
-1.567149 7.738405 0.000000
-1.945025 7.764697 0.000000
-2.343946 7.800118 0.000000
-2.765429 7.840533 0.000000
-3.207022 7.889794 0.000000
-3.671560 7.945089 0.000000
-4.155625 8.008580 0.000000
-4.662797 8.079339 0.000000
-5.189517 8.157511 0.000000
-5.739165 8.244239 0.000000
-6.309114 8.337883 0.000000
-6.901540 8.441161 0.000000
-7.515600 8.551631 0.000000
-8.151938 8.672687 0.000000
-8.812483 8.803726 0.000000
-9.500318 8.952488 0.000000
1.232965 8.484767 0.000000
1.131858 8.453509 0.000000
1.003235 8.429499 0.000000
0.854091 8.408064 0.000000
0.678833 8.390694 0.000000
0.483293 8.374579 0.000000
0.262771 8.363626 0.000000
0.021890 8.354400 0.000000
-0.242923 8.351709 0.000000
-0.528300 8.351410 0.000000
-0.836529 8.358710 0.000000
-1.165588 8.369082 0.000000
-1.516385 8.387726 0.000000
-1.888316 8.410135 0.000000
-2.280888 8.441075 0.000000
-2.694917 8.476525 0.000000
-3.128626 8.520350 0.000000
-3.584091 8.569540 0.000000
-4.058593 8.626594 0.000000
-4.555047 8.690000 0.000000
-5.070418 8.760579 0.000000
-5.607754 8.838561 0.000000
-6.164540 8.923166 0.000000
-6.743140 9.016122 0.000000
-7.342303 9.115662 0.000000
-7.963186 9.224290 0.000000
-8.606203 9.340455 0.000000
-9.272256 9.467852 0.000000
-9.966525 9.610814 0.000000
1.150356 9.124680 0.000000
1.023779 9.094979 0.000000
0.876537 9.071899 0.000000
0.703245 9.053697 0.000000
0.509926 9.037309 0.000000
0.291882 9.025530 0.000000
0.053924 9.015465 0.000000
-0.207655 9.011233 0.000000
-0.489219 9.009261 0.000000
-0.793298 9.014206 0.000000
-1.117490 9.022028 0.000000
-1.463056 9.037502 0.000000
-1.828894 9.056477 0.000000
-2.214982 9.083450 0.000000
-2.621528 9.114572 0.000000
-3.047326 9.153636 0.000000
-3.493780 9.197552 0.000000
-3.958778 9.249006 0.000000
-4.444609 9.306090 0.000000
-4.948741 9.370097 0.000000
-5.473821 9.440561 0.000000
-6.017556 9.517369 0.000000
-6.582290 9.601420 0.000000
-7.166605 9.691581 0.000000
-7.772022 9.789639 0.000000
-8.398345 9.894178 0.000000
-9.046276 10.007390 0.000000
-9.717587 10.129649 0.000000
-10.415792 10.267736 0.000000
1.042849 9.765320 0.000000
0.898373 9.736412 0.000000
0.727662 9.715582 0.000000
0.537002 9.698153 0.000000
0.321826 9.685200 0.000000
0.087121 9.674135 0.000000
-0.170899 9.668303 0.000000
-0.448383 9.664684 0.000000
-0.748054 9.667371 0.000000
-1.067198 9.672817 0.000000
-1.407368 9.685361 0.000000
-1.767042 9.701232 0.000000
-2.146589 9.724622 0.000000
-2.545694 9.751907 0.000000