# vtk DataFile Version 2.0
patchtest_tri3_mix
ASCII
DATASET POLYDATA
POINTS 496 float
0.000000 0.000000 0.000000
48.000000 44.000000 0.000000
48.000000 60.000000 0.000000
0.000000 44.000000 0.000000
1.600000 1.466667 0.000000
3.200000 2.933333 0.000000
4.800000 4.400000 0.000000
6.400000 5.866667 0.000000
8.000000 7.333333 0.000000
9.600000 8.800000 0.000000
11.200000 10.266667 0.000000
12.800000 11.733333 0.000000
14.400000 13.200000 0.000000
16.000000 14.666667 0.000000
17.600000 16.133333 0.000000
19.200000 17.600000 0.000000
20.800000 19.066667 0.000000
22.400000 20.533333 0.000000
24.000000 22.000000 0.000000
25.600000 23.466667 0.000000
27.200000 24.933333 0.000000
28.800000 26.400000 0.000000
30.400000 27.866667 0.000000
32.000000 29.333333 0.000000
33.600000 30.800000 0.000000
35.200000 32.266667 0.000000
36.800000 33.733333 0.000000
38.400000 35.200000 0.000000
40.000000 36.666667 0.000000
41.600000 38.133333 0.000000
43.200000 39.600000 0.000000
44.800000 41.066667 0.000000
46.400000 42.533333 0.000000
48.000000 45.066667 0.000000
48.000000 46.133333 0.000000
48.000000 47.200000 0.000000
48.000000 48.266667 0.000000
48.000000 49.333333 0.000000
48.000000 50.400000 0.000000
48.000000 51.466667 0.000000
48.000000 52.533333 0.000000
48.000000 53.600000 0.000000
48.000000 54.666667 0.000000
48.000000 55.733333 0.000000
48.000000 56.800000 0.000000
48.000000 57.866667 0.000000
48.000000 58.933333 0.000000
46.400000 59.466667 0.000000
44.800000 58.933333 0.000000
43.200000 58.400000 0.000000
41.600000 57.866667 0.000000
40.000000 57.333333 0.000000
38.400000 56.800000 0.000000
36.800000 56.266667 0.000000
35.200000 55.733333 0.000000
33.600000 55.200000 0.000000
32.000000 54.666667 0.000000
30.400000 54.133333 0.000000
28.800000 53.600000 0.000000
27.200000 53.066667 0.000000
25.600000 52.533333 0.000000
24.000000 52.000000 0.000000
22.400000 51.466667 0.000000
20.800000 50.933333 0.000000
19.200000 50.400000 0.000000
17.600000 49.866667 0.000000
16.000000 49.333333 0.000000
14.400000 48.800000 0.000000
12.800000 48.266667 0.000000
11.200000 47.733333 0.000000
9.600000 47.200000 0.000000
8.000000 46.666667 0.000000
6.400000 46.133333 0.000000
4.800000 45.600000 0.000000
3.200000 45.066667 0.000000
1.600000 44.533333 0.000000
0.000000 41.066667 0.000000
0.000000 38.133333 0.000000
0.000000 35.200000 0.000000
0.000000 32.266667 0.000000
0.000000 29.333333 0.000000
0.000000 26.400000 0.000000
0.000000 23.466667 0.000000
0.000000 20.533333 0.000000
0.000000 17.600000 0.000000
0.000000 14.666667 0.000000
0.000000 11.733333 0.000000
0.000000 8.800000 0.000000
0.000000 5.866667 0.000000
0.000000 2.933333 0.000000
1.600000 4.337778 0.000000
1.600000 7.208889 0.000000
1.600000 10.080000 0.000000
1.600000 12.951111 0.000000
1.600000 15.822222 0.000000
1.600000 18.693333 0.000000
1.600000 21.564444 0.000000
1.600000 24.435556 0.000000
1.600000 27.306667 0.000000
1.600000 30.177778 0.000000
1.600000 33.048889 0.000000
1.600000 35.920000 0.000000
1.600000 38.791111 0.000000
1.600000 41.662222 0.000000
3.200000 5.742222 0.000000
3.200000 8.551111 0.000000
3.200000 11.360000 0.000000
3.200000 14.168889 0.000000
3.200000 16.977778 0.000000
3.200000 19.786667 0.000000
3.200000 22.595556 0.000000
3.200000 25.404444 0.000000
3.200000 28.213333 0.000000
3.200000 31.022222 0.000000
3.200000 33.831111 0.000000
3.200000 36.640000 0.000000
3.200000 39.448889 0.000000
3.200000 42.257778 0.000000
4.800000 7.146667 0.000000
4.800000 9.893333 0.000000
4.800000 12.640000 0.000000
4.800000 15.386667 0.000000
4.800000 18.133333 0.000000
4.800000 20.880000 0.000000
4.800000 23.626667 0.000000
4.800000 26.373333 0.000000
4.800000 29.120000 0.000000
4.800000 31.866667 0.000000
4.800000 34.613333 0.000000
4.800000 37.360000 0.000000
4.800000 40.106667 0.000000
4.800000 42.853333 0.000000
6.400000 8.551111 0.000000
6.400000 11.235556 0.000000
6.400000 13.920000 0.000000
6.400000 16.604444 0.000000
6.400000 19.288889 0.000000
6.400000 21.973333 0.000000
6.400000 24.657778 0.000000
6.400000 27.342222 0.000000
6.400000 30.026667 0.000000
6.400000 32.711111 0.000000
6.400000 35.395556 0.000000
6.400000 38.080000 0.000000
6.400000 40.764444 0.000000
6.400000 43.448889 0.000000
8.000000 9.955556 0.000000
8.000000 12.577778 0.000000
8.000000 15.200000 0.000000
8.000000 17.822222 0.000000
8.000000 20.444444 0.000000
8.000000 23.066667 0.000000
8.000000 25.688889 0.000000
8.000000 28.311111 0.000000
8.000000 30.933333 0.000000
8.000000 33.555556 0.000000
8.000000 36.177778 0.000000
8.000000 38.800000 0.000000
8.000000 41.422222 0.000000
8.000000 44.044444 0.000000
9.600000 11.360000 0.000000
9.600000 13.920000 0.000000
9.600000 16.480000 0.000000
9.600000 19.040000 0.000000
9.600000 21.600000 0.000000
9.600000 24.160000 0.000000
9.600000 26.720000 0.000000
9.600000 29.280000 0.000000
9.600000 31.840000 0.000000
9.600000 34.400000 0.000000
9.600000 36.960000 0.000000
9.600000 39.520000 0.000000
9.600000 42.080000 0.000000
9.600000 44.640000 0.000000
11.200000 12.764444 0.000000
11.200000 15.262222 0.000000
11.200000 17.760000 0.000000
11.200000 20.257778 0.000000
11.200000 22.755556 0.000000
11.200000 25.253333 0.000000
11.200000 27.751111 0.000000
11.200000 30.248889 0.000000
11.200000 32.746667 0.000000
11.200000 35.244444 0.000000
11.200000 37.742222 0.000000
11.200000 40.240000 0.000000
11.200000 42.737778 0.000000
11.200000 45.235556 0.000000
12.800000 14.168889 0.000000
12.800000 16.604444 0.000000
12.800000 19.040000 0.000000
12.800000 21.475556 0.000000
12.800000 23.911111 0.000000
12.800000 26.346667 0.000000
12.800000 28.782222 0.000000
12.800000 31.217778 0.000000
12.800000 33.653333 0.000000
12.800000 36.088889 0.000000
12.800000 38.524444 0.000000
12.800000 40.960000 0.000000
12.800000 43.395556 0.000000
12.800000 45.831111 0.000000
14.400000 15.573333 0.000000
14.400000 17.946667 0.000000
14.400000 20.320000 0.000000
14.400000 22.693333 0.000000
14.400000 25.066667 0.000000
14.400000 27.440000 0.000000
14.400000 29.813333 0.000000
14.400000 32.186667 0.000000
14.400000 34.560000 0.000000
14.400000 36.933333 0.000000
14.400000 39.306667 0.000000
14.400000 41.680000 0.000000
14.400000 44.053333 0.000000
14.400000 46.426667 0.000000
16.000000 16.977778 0.000000
16.000000 19.288889 0.000000
16.000000 21.600000 0.000000
16.000000 23.911111 0.000000
16.000000 26.222222 0.000000
16.000000 28.533333 0.000000
16.000000 30.844444 0.000000
16.000000 33.155556 0.000000
16.000000 35.466667 0.000000
16.000000 37.777778 0.000000
16.000000 40.088889 0.000000
16.000000 42.400000 0.000000
16.000000 44.711111 0.000000
16.000000 47.022222 0.000000
17.600000 18.382222 0.000000
17.600000 20.631111 0.000000
17.600000 22.880000 0.000000
17.600000 25.128889 0.000000
17.600000 27.377778 0.000000
17.600000 29.626667 0.000000
17.600000 31.875556 0.000000
17.600000 34.124444 0.000000
17.600000 36.373333 0.000000
17.600000 38.622222 0.000000
17.600000 40.871111 0.000000
17.600000 43.120000 0.000000
17.600000 45.368889 0.000000
17.600000 47.617778 0.000000
19.200000 19.786667 0.000000
19.200000 21.973333 0.000000
19.200000 24.160000 0.000000
19.200000 26.346667 0.000000
19.200000 28.533333 0.000000
19.200000 30.720000 0.000000
19.200000 32.906667 0.000000
19.200000 35.093333 0.000000
19.200000 37.280000 0.000000
19.200000 39.466667 0.000000
19.200000 41.653333 0.000000
19.200000 43.840000 0.000000
19.200000 46.026667 0.000000
19.200000 48.213333 0.000000
20.800000 21.191111 0.000000
20.800000 23.315556 0.000000
20.800000 25.440000 0.000000
20.800000 27.564444 0.000000
20.800000 29.688889 0.000000
20.800000 31.813333 0.000000
20.800000 33.937778 0.000000
20.800000 36.062222 0.000000
20.800000 38.186667 0.000000
20.800000 40.311111 0.000000
20.800000 42.435556 0.000000
20.800000 44.560000 0.000000
20.800000 46.684444 0.000000
20.800000 48.808889 0.000000
22.400000 22.595556 0.000000
22.400000 24.657778 0.000000
22.400000 26.720000 0.000000
22.400000 28.782222 0.000000
22.400000 30.844444 0.000000
22.400000 32.906667 0.000000
22.400000 34.968889 0.000000
22.400000 37.031111 0.000000
22.400000 39.093333 0.000000
22.400000 41.155556 0.000000
22.400000 43.217778 0.000000
22.400000 45.280000 0.000000
22.400000 47.342222 0.000000
22.400000 49.404444 0.000000
24.000000 24.000000 0.000000
24.000000 26.000000 0.000000
24.000000 28.000000 0.000000
24.000000 30.000000 0.000000
24.000000 32.000000 0.000000
24.000000 34.000000 0.000000
24.000000 36.000000 0.000000
24.000000 38.000000 0.000000
24.000000 40.000000 0.000000
24.000000 42.000000 0.000000
24.000000 44.000000 0.000000
24.000000 46.000000 0.000000
24.000000 48.000000 0.000000
24.000000 50.000000 0.000000
25.600000 25.404444 0.000000
25.600000 27.342222 0.000000
25.600000 29.280000 0.000000
25.600000 31.217778 0.000000
25.600000 33.155556 0.000000
25.600000 35.093333 0.000000
25.600000 37.031111 0.000000
25.600000 38.968889 0.000000
25.600000 40.906667 0.000000
25.600000 42.844444 0.000000
25.600000 44.782222 0.000000
25.600000 46.720000 0.000000
25.600000 48.657778 0.000000
25.600000 50.595556 0.000000
27.200000 26.808889 0.000000
27.200000 28.684444 0.000000
27.200000 30.560000 0.000000
27.200000 32.435556 0.000000
27.200000 34.311111 0.000000
27.200000 36.186667 0.000000
27.200000 38.062222 0.000000
27.200000 39.937778 0.000000
27.200000 41.813333 0.000000
27.200000 43.688889 0.000000
27.200000 45.564444 0.000000
27.200000 47.440000 0.000000
27.200000 49.315556 0.000000
27.200000 51.191111 0.000000
28.800000 28.213333 0.000000
28.800000 30.026667 0.000000
28.800000 31.840000 0.000000
28.800000 33.653333 0.000000
28.800000 35.466667 0.000000
28.800000 37.280000 0.000000
28.800000 39.093333 0.000000
28.800000 40.906667 0.000000
28.800000 42.720000 0.000000
28.800000 44.533333 0.000000
28.800000 46.346667 0.000000
28.800000 48.160000 0.000000
28.800000 49.973333 0.000000
28.800000 51.786667 0.000000
30.400000 29.617778 0.000000
30.400000 31.368889 0.000000
30.400000 33.120000 0.000000
30.400000 34.871111 0.000000
[...]
POINT_DATA 496
SCALARS P float 1
LOOKUP_TABLE default
23.879658
4.948363
-1.764362
244.328208
-1.537618
7.049607
4.262648
2.549858
7.713713
4.680985
5.757635
7.048091
7.017813
8.399692
8.821958
9.768938
10.396627
10.958347
11.554553
11.819783
12.211592
12.353893
12.495644
12.535050
12.508506
12.412539
12.255764
12.014552
11.668342
11.181191
10.487274
9.453394
7.744217
-1.818401
7.001002
1.587236
7.622045
3.948001
8.199928
5.324704
8.803081
5.861949
9.521398
5.479166
10.649689
3.708807
12.554774
-8.771891
-4.365113
-5.908397
-5.835564
-6.270980
-6.771317
-7.294280
-7.821956
-8.311019
-8.749353
-9.127378
-9.442656
-9.714465
-9.899786
-10.134156
-10.120122
-10.492413
-10.257343
-10.406516
-11.416158
-8.599027
-13.991549
-7.033920
-17.198253
-8.489826
18.037410
-86.289355
64.433788
-200.622342
313.809418
271.645139
197.247155
130.209483
80.367731
46.631810
25.015562
11.587680
3.390790
-1.465098
-3.957194
-4.610881
-3.643066
1.456243
11.217332
15.188730
17.499252
18.583819
17.536861
13.384260
4.676136
-10.865696
-36.457993
-75.958223
-132.499970
-204.654817
-276.991248
-302.059650
1.070610
-2.930816
-7.089244
-11.437922
-15.515644
-18.624711
-19.586975
-16.531863
-6.915446
12.116617
42.469282
82.091773
118.929178
122.900058
12.446852
20.429305
29.283124
38.456397
46.929779
53.492356
56.302420
52.749485
39.522743
13.263324
-27.548524
-78.719285
-124.003814
-134.010361
-3.556489
-10.323142
-18.030260
-26.160227
-33.986495
-40.309862
-43.313014
-40.468706
-28.772026
-5.634581
28.920800
68.242602
94.895955
81.753206
11.086315
15.302595
19.173859
22.740909
25.487026
26.748600
25.526162
20.526132
10.358239
-5.845266
-27.052371
-48.481509
-59.117449
-48.080380
4.339294
3.819741
2.912919
1.594720
-0.074815
-1.858236
-3.365876
-4.058108
-3.329423
-0.792880
3.253040
6.879982
6.402798
0.177869
6.256582
6.630477
6.728504
6.887997
7.065034
7.109706
6.705727
5.381486
2.603124
-1.978872
-7.964339
-13.717468
-16.472497
-13.740859
7.174832
7.234197
6.519297
5.029272
2.880166
0.376611
-1.975823
-3.504593
-3.521721
-1.754190
1.102722
2.958558
0.501057
-7.366582
7.123974
7.143818
7.268869
7.532681
7.797771
7.757790
6.951664
4.813208
0.929874
-4.544658
-10.428745
-14.156951
-13.052643
-9.022387
8.242108
7.667793
6.487596
4.822978
2.886868
0.972804
-0.495144
-1.096779
-0.614561
0.658553
1.569321
0.126882
-4.619120
-9.910203
8.642153
8.337926
8.030866
7.589069
6.960385
5.942179
4.327662
1.941686
-1.186815
-4.638809
-7.428132
-8.433064
-7.821290
-7.985207
9.243812
8.284799
7.134535
5.756330
4.329384
2.970457
1.847963
1.042995
0.496089
-0.138060
-1.472777
-3.947708
-6.954325
-9.221763
9.935883
9.140243
8.338236
7.331746
6.173265
4.752749
3.054978
1.077032
-1.052572
-3.057164
-4.588286
-5.610785
-6.639713
-8.422272
10.218040
9.039671
7.905496
6.595196
5.308019
4.019936
2.796925
1.610274
0.378980
-1.069853
-2.864233
-4.922267
-6.850814
-8.548760
10.819076
9.622817
8.565589
7.282585
5.946243
4.462473
2.883609
1.223991
-0.429025
-1.992165
-3.430740
-4.881691
-6.494040
-8.380851
11.025470
9.637145
8.475175
7.125690
5.821145
4.459200
3.095834
1.682825
0.198406
-1.399656
-3.084784
-4.802986
-6.453861
-8.190317
11.328349
9.920651
8.748118
7.347247
5.979840
4.514711
3.033957
1.519541
0.012338
-1.495832
-3.015771
-4.614098
-6.262452
-8.032632
11.487709
9.955319
8.782259
7.364386
6.029845
4.608913
3.190703
1.719928
0.219700
-1.325794
-2.886118
-4.478884
-6.069215
-7.777959
11.593293
10.041140
8.851547
7.396235
6.043780
4.593008
3.166199
1.704468
0.247025
-1.237649
-2.738452
-4.293438
-5.854603
-7.516776
11.630928
10.015099
8.858114
7.382048
6.057279
4.618841
3.220128
1.776540
0.340371
-1.120185
-2.580416
-4.081854
-5.584788
-7.183818
11.622821
9.951975
8.816321
7.315163
6.005881
4.571361
3.203937
1.798105
0.415597
-0.990878
-2.392516
-3.837393
-5.280979
-6.809577
11.539957
9.826787
8.725089
7.206600
5.931982
4.513422
3.188343
1.822872
0.503267
-0.840073
-2.170045
-3.543590
-4.922342
-6.379906
11.387866
9.628708
8.568918
7.030023
5.799252
4.406950
3.152880
1.846940
0.609524
-0.650136
-1.897148
-3.194846
-4.506255
-5.908670
11.158656
9.343876
8.340441
6.782556
5.621069
4.252705
3.097481
1.885605
0.759549
-0.400411
-1.543990
-2.769815
-4.021746
-5.394534
10.822584
8.942969
8.011476
6.427953
5.388826
4.095291
3.043720
1.976494
0.981507
-0.030909
-1.090717
-2.216203
-3.465927
-4.848261
10.338660
8.378226
7.568633
5.924485
5.024456
3.896399
3.070810
2.145356
1.408184
0.451289
-0.357041
-1.610722
-2.643647
-4.396483
9.636963
7.543401
6.961356
5.433150
4.642825
3.783481
3.206573
2.635568
1.969687
1.443749
0.368609
-0.286709
-2.167910
-3.181971
8.657053
6.183588
5.779939
4.640913
4.467235
3.822365
3.898193
3.278471
3.383504
2.292776
2.505061
0.197304
0.674048
-4.183875
7.144153
4.955778
4.411259
4.273668
4.689188
4.682476
4.957391
4.942436
4.853112
4.790719
3.955544
4.056418
1.049356
1.702244
