# vtk DataFile Version 2.0
patchtest_tri3_mix
ASCII
DATASET POLYDATA
POINTS 40 float
0.000000 -6.000000 0.000000
48.000000 -6.000000 0.000000
48.000000 6.000000 0.000000
0.000000 6.000000 0.000000
4.000000 -6.000000 0.000000
8.000000 -6.000000 0.000000
12.000000 -6.000000 0.000000
16.000000 -6.000000 0.000000
20.000000 -6.000000 0.000000
24.000000 -6.000000 0.000000
28.000000 -6.000000 0.000000
32.000000 -6.000000 0.000000
36.000000 -6.000000 0.000000
40.000000 -6.000000 0.000000
44.000000 -6.000000 0.000000
48.000000 -2.000000 0.000000
48.000000 2.000000 0.000000
44.000000 6.000000 0.000000
40.000000 6.000000 0.000000
36.000000 6.000000 0.000000
32.000000 6.000000 0.000000
28.000000 6.000000 0.000000
24.000000 6.000000 0.000000
20.000000 6.000000 0.000000
16.000000 6.000000 0.000000
12.000000 6.000000 0.000000
8.000000 6.000000 0.000000
4.000000 6.000000 0.000000
0.000000 2.000000 0.000000
0.000000 -2.000000 0.000000
38.339422 0.091536 0.000000
19.179699 0.291017 0.000000
43.173383 -0.018556 0.000000
23.923661 -0.239354 0.000000
28.680287 0.148437 0.000000
33.470588 -0.071366 0.000000
9.126054 -1.973365 0.000000
14.437748 -0.487976 0.000000
10.089264 1.931090 0.000000
4.796917 0.312454 0.000000
POLYGONS 48 192
3 0 4 29
3 29 4 39
3 36 4 5
3 36 5 6
3 36 39 4
3 6 7 37
3 8 31 7
3 7 31 37
3 33 8 9
3 31 8 33
3 6 37 36
3 38 36 37
3 28 39 27
3 39 28 29
3 27 3 28
3 26 27 39
3 39 38 26
3 24 25 37
3 38 39 36
3 25 38 37
3 23 24 31
3 31 33 23
3 38 25 26
3 31 24 37
3 33 22 23
3 33 10 34
3 11 12 35
3 30 35 12
3 10 11 34
3 35 34 11
3 13 14 32
3 14 15 32
3 15 14 1
3 32 15 16
3 30 12 13
3 30 13 32
3 33 21 22
3 33 34 21
3 20 21 34
3 19 20 35
3 34 35 20
3 17 18 32
3 17 32 16
3 18 30 32
3 2 17 16
3 30 18 19
3 30 19 35
3 33 9 10
POINT_DATA 40
SCALARS P float 1
LOOKUP_TABLE default
1465.612963
2.055255
-13.732427
-1364.771841
865.491088
927.485178
753.813872
660.854556
516.163456
488.116162
379.828975
307.899514
231.553350
152.658452
68.259628
2.990688
3.923562
-72.132194
-167.457641
-237.695956
-315.977389
-412.752378
-446.427985
-601.253664
-583.103876
-846.561631
-879.878072
-888.873475
318.388128
-122.831912
6.133530
11.062937
7.221989
7.888678
8.112916
8.185723
105.380793
5.198946
-34.728465
-66.314680
