# vtk DataFile Version 2.0
patchtest_tri3_mix
ASCII
DATASET POLYDATA
POINTS 23 float
0.000000 -0.500000 0.000000
1.000000 -0.500000 0.000000
1.000000 0.500000 0.000000
0.000000 0.500000 0.000000
0.250000 -0.500000 0.000000
0.500000 -0.500000 0.000000
0.750000 -0.500000 0.000000
1.000000 -0.250000 0.000000
1.000000 -0.000000 0.000000
1.000000 0.250000 0.000000
0.750000 0.500000 0.000000
0.500000 0.500000 0.000000
0.250000 0.500000 0.000000
0.000000 0.250000 0.000000
0.000000 0.000000 0.000000
0.000000 -0.250000 0.000000
0.237391 -0.262442 0.000000
0.729476 0.004938 0.000000
0.268633 -0.007230 0.000000
0.296705 0.254121 0.000000
0.745980 -0.257278 0.000000
0.490214 -0.208098 0.000000
0.591261 0.244259 0.000000
POLYGONS 28 112
3 15 0 16
3 21 16 5
3 4 16 0
3 5 16 4
3 15 16 14
3 18 16 21
3 13 14 18
3 3 13 12
3 13 19 12
3 19 13 18
3 22 19 18
3 11 12 19
3 14 16 18
3 17 18 21
3 5 6 20
3 20 6 1
3 21 20 17
3 1 7 20
3 7 8 20
3 17 20 8
3 10 11 22
3 11 19 22
3 22 18 17
3 9 22 17
3 10 9 2
3 9 10 22
3 17 8 9
3 5 20 21
POINT_DATA 23
SCALARS P float 1
LOOKUP_TABLE default
2761.999995
-377.426289
-484.881287
-2889.563869
1814.154792
788.021625
17.559674
1989.263428
-387.938087
1221.730836
-1226.080577
-2442.723844
-4038.504334
-1596.821605
1898.215822
3275.008868
125.819104
-3132.587392
-5907.988564
2227.988054
-890.788934
6480.501010
1579.765275
