# vtk DataFile Version 2.0
patchtest_tri3_mix
ASCII
DATASET POLYDATA
POINTS 15 float
0.000000 0.000000 0.000000
48.000000 44.000000 0.000000
48.000000 60.000000 0.000000
0.000000 44.000000 0.000000
12.000000 11.000000 0.000000
24.000000 22.000000 0.000000
36.000000 33.000000 0.000000
48.000000 52.000000 0.000000
36.000000 56.000000 0.000000
24.000000 52.000000 0.000000
12.000000 48.000000 0.000000
0.000000 22.000000 0.000000
12.000000 29.500000 0.000000
24.000000 37.000000 0.000000
36.000000 44.500000 0.000000
POLYGONS 16 64
3 0 4 11
3 11 4 12
3 11 12 3
3 3 12 10
3 4 5 12
3 12 5 13
3 12 13 10
3 10 13 9
3 5 6 13
3 13 6 14
3 13 14 9
3 9 14 8
3 6 1 14
3 14 1 7
3 14 7 8
3 8 7 2
POINT_DATA 15
SCALARS P float 1
LOOKUP_TABLE default
7.621674
-288.150434
-3.997592
-103.640213
-33.791280
21.364299
154.529458
244.575808
-200.008559
25.933785
113.488721
23.979864
131.185975
-331.950361
247.824623
