# vtk DataFile Version 2.0
patchtest_tri3_mix
ASCII
DATASET POLYDATA
POINTS 1326 float
0.000000 0.000000 0.000000
48.000000 44.000000 0.000000
48.000000 60.000000 0.000000
0.000000 44.000000 0.000000
0.960000 0.880000 0.000000
1.920000 1.760000 0.000000
2.880000 2.640000 0.000000
3.840000 3.520000 0.000000
4.800000 4.400000 0.000000
5.760000 5.280000 0.000000
6.720000 6.160000 0.000000
7.680000 7.040000 0.000000
8.640000 7.920000 0.000000
9.600000 8.800000 0.000000
10.560000 9.680000 0.000000
11.520000 10.560000 0.000000
12.480000 11.440000 0.000000
13.440000 12.320000 0.000000
14.400000 13.200000 0.000000
15.360000 14.080000 0.000000
16.320000 14.960000 0.000000
17.280000 15.840000 0.000000
18.240000 16.720000 0.000000
19.200000 17.600000 0.000000
20.160000 18.480000 0.000000
21.120000 19.360000 0.000000
22.080000 20.240000 0.000000
23.040000 21.120000 0.000000
24.000000 22.000000 0.000000
24.960000 22.880000 0.000000
25.920000 23.760000 0.000000
26.880000 24.640000 0.000000
27.840000 25.520000 0.000000
28.800000 26.400000 0.000000
29.760000 27.280000 0.000000
30.720000 28.160000 0.000000
31.680000 29.040000 0.000000
32.640000 29.920000 0.000000
33.600000 30.800000 0.000000
34.560000 31.680000 0.000000
35.520000 32.560000 0.000000
36.480000 33.440000 0.000000
37.440000 34.320000 0.000000
38.400000 35.200000 0.000000
39.360000 36.080000 0.000000
40.320000 36.960000 0.000000
41.280000 37.840000 0.000000
42.240000 38.720000 0.000000
43.200000 39.600000 0.000000
44.160000 40.480000 0.000000
45.120000 41.360000 0.000000
46.080000 42.240000 0.000000
47.040000 43.120000 0.000000
48.000000 44.640000 0.000000
48.000000 45.280000 0.000000
48.000000 45.920000 0.000000
48.000000 46.560000 0.000000
48.000000 47.200000 0.000000
48.000000 47.840000 0.000000
48.000000 48.480000 0.000000
48.000000 49.120000 0.000000
48.000000 49.760000 0.000000
48.000000 50.400000 0.000000
48.000000 51.040000 0.000000
48.000000 51.680000 0.000000
48.000000 52.320000 0.000000
48.000000 52.960000 0.000000
48.000000 53.600000 0.000000
48.000000 54.240000 0.000000
48.000000 54.880000 0.000000
48.000000 55.520000 0.000000
48.000000 56.160000 0.000000
48.000000 56.800000 0.000000
48.000000 57.440000 0.000000
48.000000 58.080000 0.000000
48.000000 58.720000 0.000000
48.000000 59.360000 0.000000
47.040000 59.680000 0.000000
46.080000 59.360000 0.000000
45.120000 59.040000 0.000000
44.160000 58.720000 0.000000
43.200000 58.400000 0.000000
42.240000 58.080000 0.000000
41.280000 57.760000 0.000000
40.320000 57.440000 0.000000
39.360000 57.120000 0.000000
38.400000 56.800000 0.000000
37.440000 56.480000 0.000000
36.480000 56.160000 0.000000
35.520000 55.840000 0.000000
34.560000 55.520000 0.000000
33.600000 55.200000 0.000000
32.640000 54.880000 0.000000
31.680000 54.560000 0.000000
30.720000 54.240000 0.000000
29.760000 53.920000 0.000000
28.800000 53.600000 0.000000
27.840000 53.280000 0.000000
26.880000 52.960000 0.000000
25.920000 52.640000 0.000000
24.960000 52.320000 0.000000
24.000000 52.000000 0.000000
23.040000 51.680000 0.000000
22.080000 51.360000 0.000000
21.120000 51.040000 0.000000
20.160000 50.720000 0.000000
19.200000 50.400000 0.000000
18.240000 50.080000 0.000000
17.280000 49.760000 0.000000
16.320000 49.440000 0.000000
15.360000 49.120000 0.000000
14.400000 48.800000 0.000000
13.440000 48.480000 0.000000
12.480000 48.160000 0.000000
11.520000 47.840000 0.000000
10.560000 47.520000 0.000000
9.600000 47.200000 0.000000
8.640000 46.880000 0.000000
7.680000 46.560000 0.000000
6.720000 46.240000 0.000000
5.760000 45.920000 0.000000
4.800000 45.600000 0.000000
3.840000 45.280000 0.000000
2.880000 44.960000 0.000000
1.920000 44.640000 0.000000
0.960000 44.320000 0.000000
0.000000 42.240000 0.000000
0.000000 40.480000 0.000000
0.000000 38.720000 0.000000
0.000000 36.960000 0.000000
0.000000 35.200000 0.000000
0.000000 33.440000 0.000000
0.000000 31.680000 0.000000
0.000000 29.920000 0.000000
0.000000 28.160000 0.000000
0.000000 26.400000 0.000000
0.000000 24.640000 0.000000
0.000000 22.880000 0.000000
0.000000 21.120000 0.000000
0.000000 19.360000 0.000000
0.000000 17.600000 0.000000
0.000000 15.840000 0.000000
0.000000 14.080000 0.000000
0.000000 12.320000 0.000000
0.000000 10.560000 0.000000
0.000000 8.800000 0.000000
0.000000 7.040000 0.000000
0.000000 5.280000 0.000000
0.000000 3.520000 0.000000
0.000000 1.760000 0.000000
0.960000 2.617600 0.000000
0.960000 4.355200 0.000000
0.960000 6.092800 0.000000
0.960000 7.830400 0.000000
0.960000 9.568000 0.000000
0.960000 11.305600 0.000000
0.960000 13.043200 0.000000
0.960000 14.780800 0.000000
0.960000 16.518400 0.000000
0.960000 18.256000 0.000000
0.960000 19.993600 0.000000
0.960000 21.731200 0.000000
0.960000 23.468800 0.000000
0.960000 25.206400 0.000000
0.960000 26.944000 0.000000
0.960000 28.681600 0.000000
0.960000 30.419200 0.000000
0.960000 32.156800 0.000000
0.960000 33.894400 0.000000
0.960000 35.632000 0.000000
0.960000 37.369600 0.000000
0.960000 39.107200 0.000000
0.960000 40.844800 0.000000
0.960000 42.582400 0.000000
1.920000 3.475200 0.000000
1.920000 5.190400 0.000000
1.920000 6.905600 0.000000
1.920000 8.620800 0.000000
1.920000 10.336000 0.000000
1.920000 12.051200 0.000000
1.920000 13.766400 0.000000
1.920000 15.481600 0.000000
1.920000 17.196800 0.000000
1.920000 18.912000 0.000000
1.920000 20.627200 0.000000
1.920000 22.342400 0.000000
1.920000 24.057600 0.000000
1.920000 25.772800 0.000000
1.920000 27.488000 0.000000
1.920000 29.203200 0.000000
1.920000 30.918400 0.000000
1.920000 32.633600 0.000000
1.920000 34.348800 0.000000
1.920000 36.064000 0.000000
1.920000 37.779200 0.000000
1.920000 39.494400 0.000000
1.920000 41.209600 0.000000
1.920000 42.924800 0.000000
2.880000 4.332800 0.000000
2.880000 6.025600 0.000000
2.880000 7.718400 0.000000
2.880000 9.411200 0.000000
2.880000 11.104000 0.000000
2.880000 12.796800 0.000000
2.880000 14.489600 0.000000
2.880000 16.182400 0.000000
2.880000 17.875200 0.000000
2.880000 19.568000 0.000000
2.880000 21.260800 0.000000
2.880000 22.953600 0.000000
2.880000 24.646400 0.000000
2.880000 26.339200 0.000000
2.880000 28.032000 0.000000
2.880000 29.724800 0.000000
2.880000 31.417600 0.000000
2.880000 33.110400 0.000000
2.880000 34.803200 0.000000
2.880000 36.496000 0.000000
2.880000 38.188800 0.000000
2.880000 39.881600 0.000000
2.880000 41.574400 0.000000
2.880000 43.267200 0.000000
3.840000 5.190400 0.000000
3.840000 6.860800 0.000000
3.840000 8.531200 0.000000
3.840000 10.201600 0.000000
3.840000 11.872000 0.000000
3.840000 13.542400 0.000000
3.840000 15.212800 0.000000
3.840000 16.883200 0.000000
3.840000 18.553600 0.000000
3.840000 20.224000 0.000000
3.840000 21.894400 0.000000
3.840000 23.564800 0.000000
3.840000 25.235200 0.000000
3.840000 26.905600 0.000000
3.840000 28.576000 0.000000
3.840000 30.246400 0.000000
3.840000 31.916800 0.000000
3.840000 33.587200 0.000000
3.840000 35.257600 0.000000
3.840000 36.928000 0.000000
3.840000 38.598400 0.000000
3.840000 40.268800 0.000000
3.840000 41.939200 0.000000
3.840000 43.609600 0.000000
4.800000 6.048000 0.000000
4.800000 7.696000 0.000000
4.800000 9.344000 0.000000
4.800000 10.992000 0.000000
4.800000 12.640000 0.000000
4.800000 14.288000 0.000000
4.800000 15.936000 0.000000
4.800000 17.584000 0.000000
4.800000 19.232000 0.000000
4.800000 20.880000 0.000000
4.800000 22.528000 0.000000
4.800000 24.176000 0.000000
4.800000 25.824000 0.000000
4.800000 27.472000 0.000000
4.800000 29.120000 0.000000
4.800000 30.768000 0.000000
4.800000 32.416000 0.000000
4.800000 34.064000 0.000000
4.800000 35.712000 0.000000
4.800000 37.360000 0.000000
4.800000 39.008000 0.000000
4.800000 40.656000 0.000000
4.800000 42.304000 0.000000
4.800000 43.952000 0.000000
5.760000 6.905600 0.000000
5.760000 8.531200 0.000000
5.760000 10.156800 0.000000
5.760000 11.782400 0.000000
5.760000 13.408000 0.000000
5.760000 15.033600 0.000000
5.760000 16.659200 0.000000
5.760000 18.284800 0.000000
5.760000 19.910400 0.000000
5.760000 21.536000 0.000000
5.760000 23.161600 0.000000
5.760000 24.787200 0.000000
5.760000 26.412800 0.000000
5.760000 28.038400 0.000000
5.760000 29.664000 0.000000
5.760000 31.289600 0.000000
5.760000 32.915200 0.000000
5.760000 34.540800 0.000000
5.760000 36.166400 0.000000
5.760000 37.792000 0.000000
5.760000 39.417600 0.000000
5.760000 41.043200 0.000000
5.760000 42.668800 0.000000
5.760000 44.294400 0.000000
6.720000 7.763200 0.000000
6.720000 9.366400 0.000000
6.720000 10.969600 0.000000
6.720000 12.572800 0.000000
6.720000 14.176000 0.000000
6.720000 15.779200 0.000000
6.720000 17.382400 0.000000
6.720000 18.985600 0.000000
6.720000 20.588800 0.000000
6.720000 22.192000 0.000000
6.720000 23.795200 0.000000
6.720000 25.398400 0.000000
6.720000 27.001600 0.000000
6.720000 28.604800 0.000000
6.720000 30.208000 0.000000
6.720000 31.811200 0.000000
6.720000 33.414400 0.000000
6.720000 35.017600 0.000000
6.720000 36.620800 0.000000
6.720000 38.224000 0.000000
6.720000 39.827200 0.000000
6.720000 41.430400 0.000000
6.720000 43.033600 0.000000
6.720000 44.636800 0.000000
7.680000 8.620800 0.000000
7.680000 10.201600 0.000000
7.680000 11.782400 0.000000
7.680000 13.363200 0.000000
7.680000 14.944000 0.000000
7.680000 16.524800 0.000000
7.680000 18.105600 0.000000
7.680000 19.686400 0.000000
7.680000 21.267200 0.000000
7.680000 22.848000 0.000000
7.680000 24.428800 0.000000
7.680000 26.009600 0.000000
7.680000 27.590400 0.000000
7.680000 29.171200 0.000000
7.680000 30.752000 0.000000
7.680000 32.332800 0.000000
7.680000 33.913600 0.000000
7.680000 35.494400 0.000000
7.680000 37.075200 0.000000
7.680000 38.656000 0.000000
7.680000 40.236800 0.000000
7.680000 41.817600 0.000000
7.680000 43.398400 0.000000
7.680000 44.979200 0.000000
8.640000 9.478400 0.000000
8.640000 11.036800 0.000000
8.640000 12.595200 0.000000
8.640000 14.153600 0.000000
8.640000 15.712000 0.000000
8.640000 17.270400 0.000000
8.640000 18.828800 0.000000
8.640000 20.387200 0.000000
8.640000 21.945600 0.000000
[...]
POINT_DATA 1326
SCALARS P float 1
LOOKUP_TABLE default
139.747706
0.704519
7.998803
4303.442206
-255.658874
559.716592
-264.987272
45.909792
62.423719
-221.415274
-417.683069
169.111259
-1473.749800
390.304412
-1164.451996
585.402462
309.334143
525.514185
606.295848
881.511822
446.244725
1347.356925
948.384322
1363.670162
1173.589728
836.648524
1064.507826
987.312872
893.025060
827.061905
714.111974
623.813058
493.702733
426.576751
270.905991
121.038071
-28.357925
-185.491349
-333.152950
-449.955726
-514.964009
-540.553883
-437.878198
-254.281978
-198.699707
-117.905609
-84.084239
-46.441777
-21.285152
-8.123649
-1.664625
0.917820
1.445084
7.276720
-6.964067
14.740068
-8.957857
18.455771
-10.551756
22.682036
-13.726782
28.197572
-18.432014
34.612231
-23.984001
41.137392
-29.476787
46.857632
-33.980327
50.914088
-36.690604
52.604632
-36.881162
50.995039
-32.731228
41.910212
-15.108187
3.349131
6.641274
2.396094
0.424073
-1.134743
-2.326867
-3.256259
-4.009651
-4.600864
-5.076898
-5.382560
-5.091147
-4.389388
-2.630709
-1.281992
1.902209
2.693772
8.040702
10.019417
15.636071
34.190866
9.339852
42.494138
165.440228
-144.539972
215.139133
338.550890
-422.971181
367.577491
422.145171
24.429185
312.572556
166.381342
633.066537
-335.851011
789.707534
1.212763
543.647604
731.886872
-208.825724
1537.469206
-519.907613
1163.665338
-659.312375
1453.138260
-797.092578
787.143001
2869.156385
-3993.440472
2141.434559
108.213786
78.785920
861.592262
175.744599
538.345563
462.719522
234.320882
587.837493
44.702572
588.603066
-75.024475
522.051114
-133.490766
263.542352
215.869292
-170.785102
305.911309
-554.690242
726.921053
-537.465579
100.713508
-69.150869
-10.551434
-54.944911
-74.793340
-15.229607
-148.216187
624.029942
-74.205108
-136.132138
298.561235
-96.972156
452.190313
-407.206800
382.088777
-361.007909
181.727343
-358.330408
8.253518
-456.992918
-49.010685
-718.508162
58.861706
-1135.381385
-84.298560
-341.932341
-3361.973748
-140.394584
23.083093
543.031811
-924.737819
137.034511
-236.543231
7.551471
-356.053042
-446.261878
-52.386472
-435.826448
-103.882914
-418.974282
-70.676388
-364.895562
-34.631370
-186.351360
-117.321494
246.899710
-387.600310
988.794210
-489.924299
962.318016
1466.977909
491.778933
-247.568086
711.166803
-426.765682
546.829993
547.962487
224.084795
564.232090
75.192170
961.198172
145.098301
931.546297
263.343424
917.125245
356.194515
845.434051
426.428514
696.842811
406.381407
613.641712
94.996212
633.923846
209.451508
-1270.500603
-395.545968
-61.162398
167.899651
-431.513231
-400.678829
-347.542251
-39.635775
-157.391011
-523.997023
-119.084319
-552.170642
-103.935870
-579.072162
-162.930353
-506.204110
-255.902231
-350.561028
-341.304098
-118.964469
-549.384152
575.279727
-1277.821054
1052.441723
322.925333
493.967386
-1111.969039
1043.280477
-123.619436
199.412370
-235.734687
-377.780157
378.117930
-562.715398
209.073938
-517.735923
17.654439
-435.460240
-144.864926
-388.730382
-305.707583
-294.502418
-541.942599
-90.278317
-811.874982
-316.026657
-96.274397
-939.769529
-1350.818110
-51.715054
-95.934142
-56.812760
313.778501
-843.433152
846.598568
-384.200535
1064.787066
-395.624386
1139.187377
-103.662755
1331.562815
22.689279
1580.125455
111.834644
1817.514659
158.660620
2083.041189
4.485117
2326.729569
189.468814
1096.446642
1469.197420
889.533228
1106.669947
-934.113871
219.840255
-115.717157
452.877139
-484.746878
-421.952395
-409.502855
-452.719159
-661.524387
-696.997494
-953.936054
-801.534516
-1361.491359
-753.287563
-1885.579415
-541.622404
-2483.919453
-19.177434
-3138.490373
550.383356
-2704.931952
37.510699
-1919.372016
540.830303
137.681906
-343.430722
1281.991117
-60.139624
1781.338069
-435.323097
2071.805409
-43.805414
2095.856953
248.896112
2115.652449
445.714070
2192.684225
488.965247
2330.037511
322.479403
2572.809818
-94.089698
2935.649611
-597.536556
2714.619048
-248.386787
1829.217036
215.320226
-742.362079
-632.969857
-1205.951265
-1050.783225
-885.189390
-1158.124488
-1290.220778
-1211.964299
-1463.689494
-1270.668935
-1585.477482
-1281.792693
-1735.012354
-1131.085529
-1962.305271
-760.293576
-2347.556224
-103.919936
-2938.339678
782.621976
-3298.245710
1160.328217
-2892.754721
1404.288342
2240.634423
453.055170
2002.002111
275.689179
2793.470311
278.896844
2647.824481
429.880243
2677.848352
609.771505
2655.157722
796.466269
2610.999655
943.025527
2620.828616
939.892498
2649.888439
722.791491
2674.036269
201.371774
2545.733005
-262.164814
1970.613306
-1833.705457
-1377.165546
-1468.154055
-1139.790272
-2011.929762
-1293.956673
-1831.142139
-1489.661529
-1800.388811
-1710.261333
-1777.394001
-1899.757304
-1755.170352
-2078.739839
-1693.501847
-2277.782828
-1479.291353
-2500.785651
-1049.229640
-2716.585611
-327.107945
-2863.593074
465.977442
-2731.293984
397.387236
2035.970458
603.972922
2586.011618
43.417667
2482.792769
449.651587
2495.538572
642.075335
2480.766877
857.883795
2446.563371
1084.111084
2384.279218
1224.228429
2335.076245
1290.132065
2282.382109
1292.241719
2237.412255
1153.176923
2148.606002
886.301359
1696.860940
-1645.810455
-520.766792
-1916.842328
-339.049718
-1926.225027
-670.105111
-1976.676265
-940.324549
-1998.369691
-1212.266472
-2027.463237
-1454.961915
-2047.602158
-1648.452493
-2000.345427
-1840.016752
-1840.331844
-2005.998137
-1579.231878
-2105.307783
-1137.454507
-2125.660262
-496.647796
-1835.515948
20.337271
1228.017270
-706.844431
2024.322534
-144.253094
1914.396584
110.420321
2067.334021
431.115708
2184.718717
782.030289
2213.009477
1150.817179
2211.895708
1451.101557
2147.602365
1604.654503
1968.236009
1546.352130
1618.140340
1240.683440
1108.401320
834.515622
812.209551
-1672.436348
675.351893
-1923.289725
227.676666
-1873.847841
-37.769071
-1886.385751
-423.652631
-1871.868032
-823.690177
-1863.810261
-1163.947471
-1903.002006
-1429.463620
-1907.367987
-1629.192416
-1807.038196
-1722.473538
-1567.592455
-1679.624789
-1132.460926
-1520.963383
-654.643628
-1369.035516
12.797357
2307.004031
-412.692467
1811.573067
28.394922
1750.178176
251.406766
1725.421752
445.892953
1761.189737
676.096593
1788.346962
920.819724
1775.945574
1193.413106
1756.930826
1452.230618
1753.183363
1692.907991
1700.578349
1835.686593
1535.853560
1491.692219
1015.779383
-2370.091252
484.822548
-1957.993965
128.826793
-2057.925566
-75.912421
-2069.352775
-364.292990
-2023.805586
-735.118477
-1944.911473
-1082.921647
-1858.681064
-1375.760056
-1775.763422
-1604.347499
-1673.488020
-1772.171783
-1520.751116
-1827.114608
-1277.843194
-1619.831481
-698.892906
-1099.552362
-942.717736
2313.944490
-152.017117
2380.795765
326.648368
2387.411028
872.546145
2424.973916
1338.733932
2456.100436
1679.209517
2460.538329
1920.464904
2339.913578
2012.261373
2067.473786
1881.048287
1585.848905
1548.147179
884.543529
991.837444
308.394183
428.724175
140.713919
-2006.578310
210.039840
-2035.651458
-255.493954
-2129.009297
-675.201084
-2285.039369
-1051.708959
-2387.239211
-1383.934222
-2405.287548
-1683.622784
-2304.580449
-1857.009755
-2072.807416
-1847.899747
-1635.745555
-1637.673385
-1035.315027
-1134.691661
-465.594996
-700.435198
-59.055238
-773.061982
-1328.983758
1288.367907
-1260.994186
1239.847710
-962.132739
1050.237229
-641.380512
875.547592
-281.640585
781.921856
77.554886
755.288611
469.471343
803.956886
890.127846
936.927059
1323.351448
1109.727357
1718.519702
1257.928804
1857.652413
1215.994145
1474.076766
795.009797
-828.622090
1757.717348
-549.910992
1444.121041
-238.090771
1237.055983
-6.614243
989.919321
62.875966
677.961707
42.439562
239.595102
-141.977146
-331.284606
-519.582377
-1085.723067
-1037.944467
-1910.358216
-1724.150612
-2438.627663
-2086.741976
-2325.877867
-1408.800548
-1258.900153
-1653.104144
972.284867
-1483.543728
630.777749
-1334.756791
276.446247
-1201.193729
-51.061944
-1061.975639
-357.514543
-896.038801
-582.562758
-682.858120
-701.179877
-380.095715
-675.950909
-46.295980
-447.834835
266.315556
-223.962463
454.034147
-212.582089
203.165612
-435.664436
-1232.246173
1367.730558
-754.855433
1308.420007
-199.059961
1385.789288
467.002369
1645.827637
1212.312729
1982.606232
2004.980573
2386.089420
2779.145202
2807.171490
3482.169671
3165.496571
3970.513856
3436.395158
4034.599578
3360.854251
3502.270767
2635.534249
2324.070654
1100.849991
-1284.860249
822.019061
-1249.678593
240.253581
-1337.517928
-452.440687
-1649.328374
-1267.491134
-2054.493080
-2147.888601
-2559.053899
-3038.650647
-3092.895711
-3901.378989
-3601.005035
-4529.106742
-4078.528644
-4766.642648
-4139.888992
-4442.379660
-3402.019901
-3264.642341
-1847.253579
-871.006634
-1114.955228
1232.619799
-749.646754
1022.674892
-293.204014
913.372822
167.637346
831.574828
613.747489
796.479023
1027.780180
784.494133
1390.921569
818.525480
1597.377806
926.977425
1636.212049
959.617403
1486.869998
813.887656
1031.701913
470.765563
268.677751
-268.789847
-1074.908078
964.869715
-664.732521
754.697798
-260.294383
669.108864
250.783265
682.863626
801.606641
804.540662
1371.451669
1010.483726
1909.280121
1323.943724
2282.035472
1712.532423
2486.483923
1972.352017
2459.049844
1924.314396
2090.393895
1472.434627
1195.015251
426.573897
-937.747608
610.240386
-848.476652
127.508828
-844.178497
-526.930117
-992.758457
-1249.750364
-1287.066910
-2026.499260
-1684.069938
-2784.971211
-2225.396809
-3344.463557
-2833.773034
-3729.855555
-3230.555293
-3820.916338
-3194.895888
-3350.062086
-2642.128242
-2143.875674
-1046.428041
-447.343950
-712.685144
842.335217
-305.495803
685.890020
268.193950
652.936699
865.293246
739.083307
1482.940825
930.343573
2036.719949
1301.692849
2402.580855
1758.754423
2658.523494
2105.622180
2729.735425
2215.594732
2430.395116
1957.306528
1786.120301
982.438815
545.357165
4.715772
-733.608787
485.525229
-446.360759
25.199472
-190.426412
-395.776698
-22.078422
-779.890096
47.043566
-1055.310701
-70.508648
-1145.662953
-306.766142
-1168.605737
-517.549377
-1143.371864
-656.383189
-1006.829872
-643.550185
-806.741108
-403.897504
-347.892861
-23.527453
-57.085332
-474.533996
331.966139
-87.586273
-15.124995
264.010273
-298.386328
553.282706
-483.970092
702.885480
-459.489472
636.833814
-305.503102
533.424072
-170.856356
440.277078
-53.430459
332.544968
15.012541
253.423007
15.437585
141.439822
-41.883345
56.702136
-60.087992
-234.657114
64.365690
122.969679
-286.696254
443.894840
-566.205016
650.309442
-670.225998
599.409131
-537.645482
444.936081
-408.529050
323.641056
-297.590793
201.691617
-187.393105
116.207052
-138.131554
81.489765
-91.064251
58.039368
-70.993249
35.139122
-35.252361
9.990217
-190.511080
383.977735
-536.808533
667.869727
-733.251475
726.430797
-629.955852
552.430558
-466.692877
410.545124
-340.181271
281.162417
-214.013756
168.937596
-141.840829
124.137358
-101.825481
72.733171
-75.557862
54.566688
-42.854748
19.591090
-37.737580
272.921990
-476.365657
669.298645
-773.822854
843.376437
-779.311606
681.633438
-571.628927
497.570835
-416.048644
351.776253
-276.105444
217.552538
-171.696265
146.875824
-126.072957
94.660902
-79.352413
68.403902
-58.678248
27.285745
-35.596916
21.818534
-27.266166
559.199506
-774.862941
904.365328
-919.858766
846.017553
-702.975785
604.830326
-501.720212
430.682828
-344.488077
279.509307
-214.386174
178.267225
-149.470370
124.035582
-97.116802
77.381748
-72.221882
44.726885
-36.343496
26.132683
-33.783122
11.863252
-24.799368
816.122049
-978.927260
1007.569765
-879.263643
746.078094
-612.092673
525.678322
-425.691566
354.777173
-273.694952
224.542433
-179.187374
153.409941
-121.135739
94.990473
-78.507141
61.929234
-45.564706
29.372679
-35.531043
20.268041
-23.735925
9.897217
-20.367546
971.384231
-1048.000166
941.857322
-761.266340
645.412827
-521.403338
441.187643
-344.881980
284.617862
-220.076648
186.861760
-147.258878
120.328152
-91.550449
74.679769
-58.785914
39.680370
-36.006242
27.477260
-27.222472
13.157535
-21.648754
6.172898
-16.966939
1030.200783
-991.218258
844.054397
-678.411312
574.749424
-454.369430
378.259809
-289.904966
241.238571
-185.255136
154.092450
-114.240246
92.147665
-69.702947
54.147473
-40.410452
32.184852
-30.543588
18.737995
-20.869631
10.341078
-16.418125
2.766968
-13.576598
987.044607
-909.066852
796.156353
-634.544801
525.701936
-399.164862
323.048323
-238.933966
194.642480
-141.131938
113.768308
-81.328785
66.723832
-48.378896
38.709851
-32.505738
25.178896
-22.000229
13.533730
-16.521904
5.606855
-12.618101
0.181517
-11.063884
777.862808
-712.292807
609.947890
-461.724577
369.753530
-265.988143
214.315595
-152.342486
125.914446
-88.218004
75.174610
-53.627421
46.217902
-34.144147
29.698400
-23.377084
16.664369
-15.470265
8.291444
-10.996382
2.259938
-9.471974
-1.549883
-9.441241
491.998578
-439.583337
372.327372
-268.487885
221.296076
-157.592955
136.387821
-96.841543
86.414855
-60.769832
55.345520
-38.453805
34.717381
-24.725856
20.505580
-14.895696
10.579348
-9.952451
4.262469
-7.946449
0.622366
-7.974525
-1.840524
-8.872762
370.568272
-328.020850
291.285437
-216.744713
187.989952
-135.430629
118.855665
-82.140831
72.947409
-48.244799
43.275416
-27.475852
24.764946
-15.203887
12.877959
-8.923149
6.351837
-6.491158
2.691777
-6.457820
0.426836
-7.512104
-1.349512
-8.847397
251.506807
-229.866603
212.946374
-153.701754
134.324370
-89.838691
79.364253
-49.256073
45.271500
-25.797221
25.243219
-13.271130
13.735849
-7.063042
7.652470
-5.030117
4.430447
-5.085915
2.590411
-6.119588
1.138687
-7.667806
-0.358773
-9.170486
182.449756
-157.612844
146.171606
-96.896473
86.060247
-51.082866
48.131531
-25.468692
26.925125
-12.499213
15.539397
-6.446509
9.529529
-4.376846
6.559867
-4.253946
4.910121
-5.113268
3.678552
-6.492440
2.501991
-8.281400
1.115668
-9.915458
110.474606
-86.568162
85.963332
-50.302586
49.812388
-24.759677
28.344989
-11.793621
17.042719
-5.985265
11.239954
-3.858191
8.454330
-3.665793
7.026915
-4.388404
6.136261
-5.620099
5.368630
-7.311232
4.517949
-9.459496
3.254147
-11.203816
66.113679
-46.402970
53.505836
-27.252030
32.503978
-13.422081
20.047392
-6.867284
13.676622
-4.266100
10.629180
-3.745737
9.292525
-4.231611
8.699444
-5.305085
8.372036
-6.858922
8.073933
-8.917504
7.580226
-11.474483
6.344947
-13.211819
42.470862
-25.769709
36.386094
-15.875985
23.562390
-8.388727
16.197322
-5.136221
12.702734
-4.194746
11.408270
-4.496925
11.174184
-5.508345
11.416014
-7.041038
11.827200
-9.073388
12.172092
-11.636829
12.148932
-14.700222
10.857468
-16.235205
29.639986
-15.172700
26.590892
-10.156440
18.726658
-6.496669
14.678606
-5.099168
13.349803
-5.191716
13.538014
-6.210592
14.468216
-7.863624
15.728990
-10.027570
17.055984
-12.659332
18.188018
-15.785786
18.727793
-19.341314
17.180583
-20.291216
22.424437
-10.237450
20.641716
-8.347104
16.616645
-6.795619
15.264452
-6.582041
15.948982
-7.709001
17.816340
-9.805033
20.336807
-12.617076
23.182268
-15.995052
26.096420
-19.864450
28.807184
-24.222630
30.768142
-28.788209
29.319244
-28.713973
17.382777
-8.181086
16.999998
-9.031074
16.918355
-8.580862
18.246009
-9.699927
21.159002
-12.340738
25.162781
-16.067132
29.742367
-20.422379
34.394437
-24.949482
38.586973
-29.187267
41.688083
-32.613404
42.581438
-34.017002
37.019327
-26.742567
