# vtk DataFile Version 2.0
patchtest_tri3_mix
ASCII
DATASET POLYDATA
POINTS 190 float
0.000000 0.000000 0.000000
48.000000 44.000000 0.000000
48.000000 60.000000 0.000000
0.000000 44.000000 0.000000
2.666667 2.444444 0.000000
5.333333 4.888889 0.000000
8.000000 7.333333 0.000000
10.666667 9.777778 0.000000
13.333333 12.222222 0.000000
16.000000 14.666667 0.000000
18.666667 17.111111 0.000000
21.333333 19.555556 0.000000
24.000000 22.000000 0.000000
26.666667 24.444444 0.000000
29.333333 26.888889 0.000000
32.000000 29.333333 0.000000
34.666667 31.777778 0.000000
37.333333 34.222222 0.000000
40.000000 36.666667 0.000000
42.666667 39.111111 0.000000
45.333333 41.555556 0.000000
48.000000 45.777778 0.000000
48.000000 47.555556 0.000000
48.000000 49.333333 0.000000
48.000000 51.111111 0.000000
48.000000 52.888889 0.000000
48.000000 54.666667 0.000000
48.000000 56.444444 0.000000
48.000000 58.222222 0.000000
45.333333 59.111111 0.000000
42.666667 58.222222 0.000000
40.000000 57.333333 0.000000
37.333333 56.444444 0.000000
34.666667 55.555556 0.000000
32.000000 54.666667 0.000000
29.333333 53.777778 0.000000
26.666667 52.888889 0.000000
24.000000 52.000000 0.000000
21.333333 51.111111 0.000000
18.666667 50.222222 0.000000
16.000000 49.333333 0.000000
13.333333 48.444444 0.000000
10.666667 47.555556 0.000000
8.000000 46.666667 0.000000
5.333333 45.777778 0.000000
2.666667 44.888889 0.000000
0.000000 39.111111 0.000000
0.000000 34.222222 0.000000
0.000000 29.333333 0.000000
0.000000 24.444444 0.000000
0.000000 19.555556 0.000000
0.000000 14.666667 0.000000
0.000000 9.777778 0.000000
0.000000 4.888889 0.000000
2.666667 7.160494 0.000000
2.666667 11.876543 0.000000
2.666667 16.592593 0.000000
2.666667 21.308642 0.000000
2.666667 26.024691 0.000000
2.666667 30.740741 0.000000
2.666667 35.456790 0.000000
2.666667 40.172840 0.000000
5.333333 9.432099 0.000000
5.333333 13.975309 0.000000
5.333333 18.518519 0.000000
5.333333 23.061728 0.000000
5.333333 27.604938 0.000000
5.333333 32.148148 0.000000
5.333333 36.691358 0.000000
5.333333 41.234568 0.000000
8.000000 11.703704 0.000000
8.000000 16.074074 0.000000
8.000000 20.444444 0.000000
8.000000 24.814815 0.000000
8.000000 29.185185 0.000000
8.000000 33.555556 0.000000
8.000000 37.925926 0.000000
8.000000 42.296296 0.000000
10.666667 13.975309 0.000000
10.666667 18.172840 0.000000
10.666667 22.370370 0.000000
10.666667 26.567901 0.000000
10.666667 30.765432 0.000000
10.666667 34.962963 0.000000
10.666667 39.160494 0.000000
10.666667 43.358025 0.000000
13.333333 16.246914 0.000000
13.333333 20.271605 0.000000
13.333333 24.296296 0.000000
13.333333 28.320988 0.000000
13.333333 32.345679 0.000000
13.333333 36.370370 0.000000
13.333333 40.395062 0.000000
13.333333 44.419753 0.000000
16.000000 18.518519 0.000000
16.000000 22.370370 0.000000
16.000000 26.222222 0.000000
16.000000 30.074074 0.000000
16.000000 33.925926 0.000000
16.000000 37.777778 0.000000
16.000000 41.629630 0.000000
16.000000 45.481481 0.000000
18.666667 20.790123 0.000000
18.666667 24.469136 0.000000
18.666667 28.148148 0.000000
18.666667 31.827160 0.000000
18.666667 35.506173 0.000000
18.666667 39.185185 0.000000
18.666667 42.864198 0.000000
18.666667 46.543210 0.000000
21.333333 23.061728 0.000000
21.333333 26.567901 0.000000
21.333333 30.074074 0.000000
21.333333 33.580247 0.000000
21.333333 37.086420 0.000000
21.333333 40.592593 0.000000
21.333333 44.098765 0.000000
21.333333 47.604938 0.000000
24.000000 25.333333 0.000000
24.000000 28.666667 0.000000
24.000000 32.000000 0.000000
24.000000 35.333333 0.000000
24.000000 38.666667 0.000000
24.000000 42.000000 0.000000
24.000000 45.333333 0.000000
24.000000 48.666667 0.000000
26.666667 27.604938 0.000000
26.666667 30.765432 0.000000
26.666667 33.925926 0.000000
26.666667 37.086420 0.000000
26.666667 40.246914 0.000000
26.666667 43.407407 0.000000
26.666667 46.567901 0.000000
26.666667 49.728395 0.000000
29.333333 29.876543 0.000000
29.333333 32.864198 0.000000
29.333333 35.851852 0.000000
29.333333 38.839506 0.000000
29.333333 41.827160 0.000000
29.333333 44.814815 0.000000
29.333333 47.802469 0.000000
29.333333 50.790123 0.000000
32.000000 32.148148 0.000000
32.000000 34.962963 0.000000
32.000000 37.777778 0.000000
32.000000 40.592593 0.000000
32.000000 43.407407 0.000000
32.000000 46.222222 0.000000
32.000000 49.037037 0.000000
32.000000 51.851852 0.000000
34.666667 34.419753 0.000000
34.666667 37.061728 0.000000
34.666667 39.703704 0.000000
34.666667 42.345679 0.000000
34.666667 44.987654 0.000000
34.666667 47.629630 0.000000
34.666667 50.271605 0.000000
34.666667 52.913580 0.000000
37.333333 36.691358 0.000000
37.333333 39.160494 0.000000
37.333333 41.629630 0.000000
37.333333 44.098765 0.000000
37.333333 46.567901 0.000000
37.333333 49.037037 0.000000
37.333333 51.506173 0.000000
37.333333 53.975309 0.000000
40.000000 38.962963 0.000000
40.000000 41.259259 0.000000
40.000000 43.555556 0.000000
40.000000 45.851852 0.000000
40.000000 48.148148 0.000000
40.000000 50.444444 0.000000
40.000000 52.740741 0.000000
40.000000 55.037037 0.000000
42.666667 41.234568 0.000000
42.666667 43.358025 0.000000
42.666667 45.481481 0.000000
42.666667 47.604938 0.000000
42.666667 49.728395 0.000000
42.666667 51.851852 0.000000
42.666667 53.975309 0.000000
42.666667 56.098765 0.000000
45.333333 43.506173 0.000000
45.333333 45.456790 0.000000
45.333333 47.407407 0.000000
45.333333 49.358025 0.000000
45.333333 51.308642 0.000000
45.333333 53.259259 0.000000
45.333333 55.209877 0.000000
45.333333 57.160494 0.000000
POLYGONS 324 1296
3 0 4 53
3 53 4 54
3 53 54 52
3 52 54 55
3 52 55 51
3 51 55 56
3 51 56 50
3 50 56 57
3 50 57 49
3 49 57 58
3 49 58 48
3 48 58 59
3 48 59 47
3 47 59 60
3 47 60 46
3 46 60 61
3 46 61 3
3 3 61 45
3 4 5 54
3 54 5 62
3 54 62 55
3 55 62 63
3 55 63 56
3 56 63 64
3 56 64 57
3 57 64 65
3 57 65 58
3 58 65 66
3 58 66 59
3 59 66 67
3 59 67 60
3 60 67 68
3 60 68 61
3 61 68 69
3 61 69 45
3 45 69 44
3 5 6 62
3 62 6 70
3 62 70 63
3 63 70 71
3 63 71 64
3 64 71 72
3 64 72 65
3 65 72 73
3 65 73 66
3 66 73 74
3 66 74 67
3 67 74 75
3 67 75 68
3 68 75 76
3 68 76 69
3 69 76 77
3 69 77 44
3 44 77 43
3 6 7 70
3 70 7 78
3 70 78 71
3 71 78 79
3 71 79 72
3 72 79 80
3 72 80 73
3 73 80 81
3 73 81 74
3 74 81 82
3 74 82 75
3 75 82 83
3 75 83 76
3 76 83 84
3 76 84 77
3 77 84 85
3 77 85 43
3 43 85 42
3 7 8 78
3 78 8 86
3 78 86 79
3 79 86 87
3 79 87 80
3 80 87 88
3 80 88 81
3 81 88 89
3 81 89 82
3 82 89 90
3 82 90 83
3 83 90 91
3 83 91 84
3 84 91 92
3 84 92 85
3 85 92 93
3 85 93 42
3 42 93 41
3 8 9 86
3 86 9 94
3 86 94 87
3 87 94 95
3 87 95 88
3 88 95 96
3 88 96 89
3 89 96 97
3 89 97 90
3 90 97 98
3 90 98 91
3 91 98 99
3 91 99 92
3 92 99 100
3 92 100 93
3 93 100 101
3 93 101 41
3 41 101 40
3 9 10 94
3 94 10 102
3 94 102 95
3 95 102 103
3 95 103 96
3 96 103 104
3 96 104 97
3 97 104 105
3 97 105 98
3 98 105 106
3 98 106 99
3 99 106 107
3 99 107 100
3 100 107 108
3 100 108 101
3 101 108 109
3 101 109 40
3 40 109 39
3 10 11 102
3 102 11 110
3 102 110 103
3 103 110 111
3 103 111 104
3 104 111 112
3 104 112 105
3 105 112 113
3 105 113 106
3 106 113 114
3 106 114 107
3 107 114 115
3 107 115 108
3 108 115 116
3 108 116 109
3 109 116 117
3 109 117 39
3 39 117 38
3 11 12 110
3 110 12 118
3 110 118 111
3 111 118 119
3 111 119 112
3 112 119 120
3 112 120 113
3 113 120 121
3 113 121 114
3 114 121 122
3 114 122 115
3 115 122 123
3 115 123 116
3 116 123 124
3 116 124 117
3 117 124 125
3 117 125 38
3 38 125 37
3 12 13 118
3 118 13 126
3 118 126 119
3 119 126 127
3 119 127 120
3 120 127 128
3 120 128 121
3 121 128 129
3 121 129 122
3 122 129 130
3 122 130 123
3 123 130 131
3 123 131 124
3 124 131 132
3 124 132 125
3 125 132 133
3 125 133 37
3 37 133 36
3 13 14 126
3 126 14 134
3 126 134 127
3 127 134 135
3 127 135 128
3 128 135 136
3 128 136 129
3 129 136 137
3 129 137 130
3 130 137 138
3 130 138 131
3 131 138 139
3 131 139 132
3 132 139 140
3 132 140 133
3 133 140 141
3 133 141 36
3 36 141 35
3 14 15 134
3 134 15 142
3 134 142 135
3 135 142 143
3 135 143 136
3 136 143 144
3 136 144 137
3 137 144 145
3 137 145 138
3 138 145 146
3 138 146 139
3 139 146 147
3 139 147 140
3 140 147 148
3 140 148 141
3 141 148 149
3 141 149 35
3 35 149 34
3 15 16 142
3 142 16 150
3 142 150 143
3 143 150 151
3 143 151 144
3 144 151 152
3 144 152 145
3 145 152 153
3 145 153 146
3 146 153 154
3 146 154 147
3 147 154 155
3 147 155 148
3 148 155 156
3 148 156 149
3 149 156 157
3 149 157 34
3 34 157 33
3 16 17 150
3 150 17 158
3 150 158 151
3 151 158 159
3 151 159 152
3 152 159 160
3 152 160 153
3 153 160 161
3 153 161 154
3 154 161 162
3 154 162 155
3 155 162 163
3 155 163 156
3 156 163 164
3 156 164 157
3 157 164 165
3 157 165 33
3 33 165 32
3 17 18 158
3 158 18 166
3 158 166 159
3 159 166 167
3 159 167 160
3 160 167 168
3 160 168 161
3 161 168 169
3 161 169 162
3 162 169 170
3 162 170 163
3 163 170 171
3 163 171 164
3 164 171 172
3 164 172 165
3 165 172 173
3 165 173 32
3 32 173 31
3 18 19 166
3 166 19 174
3 166 174 167
3 167 174 175
3 167 175 168
3 168 175 176
3 168 176 169
3 169 176 177
3 169 177 170
3 170 177 178
3 170 178 171
3 171 178 179
3 171 179 172
3 172 179 180
3 172 180 173
3 173 180 181
3 173 181 31
3 31 181 30
3 19 20 174
3 174 20 182
3 174 182 175
3 175 182 183
3 175 183 176
3 176 183 184
3 176 184 177
3 177 184 185
3 177 185 178
3 178 185 186
3 178 186 179
3 179 186 187
3 179 187 180
3 180 187 188
3 180 188 181
3 181 188 189
3 181 189 30
3 30 189 29
3 20 1 182
3 182 1 21
3 182 21 183
3 183 21 22
3 183 22 184
3 184 22 23
3 184 23 185
3 185 23 24
3 185 24 186
3 186 24 25
3 186 25 187
3 187 25 26
3 187 26 188
3 188 26 27
3 188 27 189
3 189 27 28
3 189 28 29
3 29 28 2
POINT_DATA 190
SCALARS P float 1
LOOKUP_TABLE default
6.193532
-46.638358
26.613006
1.724617
6.035490
7.268828
-5.318574
24.226398
-12.460393
9.353728
26.215621
12.020773
-6.172423
41.466874
47.415128
-34.878766
121.683801
242.532238
17.450130
-290.158929
-117.419780
304.034648
-544.661156
569.102447
-97.410962
-328.097883
349.930021
-23.880814
-112.746801
-2.572131
-270.079127
83.212932
-279.764472
37.506963
-187.857722
-35.055510
-3.884027
-117.925756
119.180757
-190.681576
172.075700
-178.814330
115.591576
-125.922765
99.887956
-99.433747
47.544088
-41.305417
4.944516
33.084646
10.199030
7.270870
12.332936
5.671842
-3.032065
-6.736254
17.464820
-25.058836
-81.816911
66.202820
42.427378
-199.769390
28.862449
10.101406
-15.539661
127.274810
87.474503
-207.426088
72.989514
294.238874
-23.133189
40.626212
-20.512352
-224.570063
79.080400
253.683566
-346.088546
-265.900524
14.120748
-54.821810
170.005684
183.923300
-314.855901
-38.634556
467.907746
65.341676
47.500429
-2.538101
-256.299326
98.576111
305.295783
-252.397188
-370.338808
122.157626
-39.159537
154.339841
110.504955
-273.673446
-61.154274
361.325836
62.210635
-197.076431
-22.433652
-121.320327
117.220508
213.600794
-207.142855
-144.443555
96.591306
174.654535
70.955318
5.230272
-197.255418
93.047269
98.285820
-31.312998
-172.440362
-106.968007
-17.514933
174.065438
-68.279752
-24.819003
13.931012
156.988547
27.778110
109.054912
-117.505185
59.596457
66.021194
-56.201040
-185.266158
80.614813
-135.437282
17.702724
61.628611
-139.373354
22.914406
410.896993
-370.555317
304.717162
-267.630209
152.711668
36.653288
352.501092
-957.478714
951.954290
-765.296105
740.231223
-421.606552
254.833679
-601.054596
1330.536359
-1344.097232
1209.180832
-1296.297187
885.489471
-730.504967
323.102909
-635.784365
593.075732
-581.989540
1024.186190
-941.925313
1067.588742
-636.216099
342.262005
375.503434
-573.323627
158.762487
138.941370
-740.056634
669.945793
-588.916233
284.935465
756.929196
-839.373581
822.499301
-222.852186
-71.769436
456.144259
-488.847478
351.635881
398.356417
-878.407228
1046.246833
-931.281278
217.436252
459.001474
-661.483734
371.632151
