# vtk DataFile Version 2.0
patchtest_tri3_mix
ASCII
DATASET POLYDATA
POINTS 40 float
0.000000 -6.000000 0.000000
48.000000 -6.000000 0.000000
48.000000 6.000000 0.000000
0.000000 6.000000 0.000000
4.000000 -6.000000 0.000000
8.000000 -6.000000 0.000000
12.000000 -6.000000 0.000000
16.000000 -6.000000 0.000000
20.000000 -6.000000 0.000000
24.000000 -6.000000 0.000000
28.000000 -6.000000 0.000000
32.000000 -6.000000 0.000000
36.000000 -6.000000 0.000000
40.000000 -6.000000 0.000000
44.000000 -6.000000 0.000000
48.000000 -2.000000 0.000000
48.000000 2.000000 0.000000
44.000000 6.000000 0.000000
40.000000 6.000000 0.000000
36.000000 6.000000 0.000000
32.000000 6.000000 0.000000
28.000000 6.000000 0.000000
24.000000 6.000000 0.000000
20.000000 6.000000 0.000000
16.000000 6.000000 0.000000
12.000000 6.000000 0.000000
8.000000 6.000000 0.000000
4.000000 6.000000 0.000000
0.000000 2.000000 0.000000
0.000000 -2.000000 0.000000
38.339422 0.091536 0.000000
19.179699 0.291017 0.000000
43.173383 -0.018556 0.000000
23.923661 -0.239354 0.000000
28.680287 0.148437 0.000000
33.470588 -0.071366 0.000000
9.126054 -1.973365 0.000000
14.437748 -0.487976 0.000000
10.089264 1.931090 0.000000
4.796917 0.312454 0.000000
POLYGONS 48 192
3 0 4 29
3 29 4 39
3 36 4 5
3 36 5 6
3 36 39 4
3 6 7 37
3 8 31 7
3 7 31 37
3 33 8 9
3 31 8 33
3 6 37 36
3 38 36 37
3 28 39 27
3 39 28 29
3 27 3 28
3 26 27 39
3 39 38 26
3 24 25 37
3 38 39 36
3 25 38 37
3 23 24 31
3 31 33 23
3 38 25 26
3 31 24 37
3 33 22 23
3 33 10 34
3 11 12 35
3 30 35 12
3 10 11 34
3 35 34 11
3 13 14 32
3 14 15 32
3 15 14 1
3 32 15 16
3 30 12 13
3 30 13 32
3 33 21 22
3 33 34 21
3 20 21 34
3 19 20 35
3 34 35 20
3 17 18 32
3 17 32 16
3 18 30 32
3 2 17 16
3 30 18 19
3 30 19 35
3 33 9 10
POINT_DATA 40
SCALARS P float 1
LOOKUP_TABLE default
1215.901492
58.569045
-177.797893
-1648.203183
321.085918
1276.794089
166.977912
1091.641753
-136.484864
967.505349
-167.732209
645.054112
-83.966545
322.681816
-68.712329
-1.030673
29.902756
334.230958
-736.187969
562.533575
-1144.466086
652.768308
-1490.878903
750.652090
-1843.265303
653.987693
-2087.608191
314.274198
412.221871
-241.439813
85.670098
186.839568
-38.839137
-164.385600
155.742851
-110.676613
-216.498795
-185.460078
376.923446
-79.793365
