# vtk DataFile Version 2.0
patchtest_tri3_mix
ASCII
DATASET POLYDATA
POINTS 496 float
0.000000 0.000000 0.000000
48.000000 44.000000 0.000000
48.000000 60.000000 0.000000
0.000000 44.000000 0.000000
1.600000 1.466667 0.000000
3.200000 2.933333 0.000000
4.800000 4.400000 0.000000
6.400000 5.866667 0.000000
8.000000 7.333333 0.000000
9.600000 8.800000 0.000000
11.200000 10.266667 0.000000
12.800000 11.733333 0.000000
14.400000 13.200000 0.000000
16.000000 14.666667 0.000000
17.600000 16.133333 0.000000
19.200000 17.600000 0.000000
20.800000 19.066667 0.000000
22.400000 20.533333 0.000000
24.000000 22.000000 0.000000
25.600000 23.466667 0.000000
27.200000 24.933333 0.000000
28.800000 26.400000 0.000000
30.400000 27.866667 0.000000
32.000000 29.333333 0.000000
33.600000 30.800000 0.000000
35.200000 32.266667 0.000000
36.800000 33.733333 0.000000
38.400000 35.200000 0.000000
40.000000 36.666667 0.000000
41.600000 38.133333 0.000000
43.200000 39.600000 0.000000
44.800000 41.066667 0.000000
46.400000 42.533333 0.000000
48.000000 45.066667 0.000000
48.000000 46.133333 0.000000
48.000000 47.200000 0.000000
48.000000 48.266667 0.000000
48.000000 49.333333 0.000000
48.000000 50.400000 0.000000
48.000000 51.466667 0.000000
48.000000 52.533333 0.000000
48.000000 53.600000 0.000000
48.000000 54.666667 0.000000
48.000000 55.733333 0.000000
48.000000 56.800000 0.000000
48.000000 57.866667 0.000000
48.000000 58.933333 0.000000
46.400000 59.466667 0.000000
44.800000 58.933333 0.000000
43.200000 58.400000 0.000000
41.600000 57.866667 0.000000
40.000000 57.333333 0.000000
38.400000 56.800000 0.000000
36.800000 56.266667 0.000000
35.200000 55.733333 0.000000
33.600000 55.200000 0.000000
32.000000 54.666667 0.000000
30.400000 54.133333 0.000000
28.800000 53.600000 0.000000
27.200000 53.066667 0.000000
25.600000 52.533333 0.000000
24.000000 52.000000 0.000000
22.400000 51.466667 0.000000
20.800000 50.933333 0.000000
19.200000 50.400000 0.000000
17.600000 49.866667 0.000000
16.000000 49.333333 0.000000
14.400000 48.800000 0.000000
12.800000 48.266667 0.000000
11.200000 47.733333 0.000000
9.600000 47.200000 0.000000
8.000000 46.666667 0.000000
6.400000 46.133333 0.000000
4.800000 45.600000 0.000000
3.200000 45.066667 0.000000
1.600000 44.533333 0.000000
0.000000 41.066667 0.000000
0.000000 38.133333 0.000000
0.000000 35.200000 0.000000
0.000000 32.266667 0.000000
0.000000 29.333333 0.000000
0.000000 26.400000 0.000000
0.000000 23.466667 0.000000
0.000000 20.533333 0.000000
0.000000 17.600000 0.000000
0.000000 14.666667 0.000000
0.000000 11.733333 0.000000
0.000000 8.800000 0.000000
0.000000 5.866667 0.000000
0.000000 2.933333 0.000000
1.600000 4.337778 0.000000
1.600000 7.208889 0.000000
1.600000 10.080000 0.000000
1.600000 12.951111 0.000000
1.600000 15.822222 0.000000
1.600000 18.693333 0.000000
1.600000 21.564444 0.000000
1.600000 24.435556 0.000000
1.600000 27.306667 0.000000
1.600000 30.177778 0.000000
1.600000 33.048889 0.000000
1.600000 35.920000 0.000000
1.600000 38.791111 0.000000
1.600000 41.662222 0.000000
3.200000 5.742222 0.000000
3.200000 8.551111 0.000000
3.200000 11.360000 0.000000
3.200000 14.168889 0.000000
3.200000 16.977778 0.000000
3.200000 19.786667 0.000000
3.200000 22.595556 0.000000
3.200000 25.404444 0.000000
3.200000 28.213333 0.000000
3.200000 31.022222 0.000000
3.200000 33.831111 0.000000
3.200000 36.640000 0.000000
3.200000 39.448889 0.000000
3.200000 42.257778 0.000000
4.800000 7.146667 0.000000
4.800000 9.893333 0.000000
4.800000 12.640000 0.000000
4.800000 15.386667 0.000000
4.800000 18.133333 0.000000
4.800000 20.880000 0.000000
4.800000 23.626667 0.000000
4.800000 26.373333 0.000000
4.800000 29.120000 0.000000
4.800000 31.866667 0.000000
4.800000 34.613333 0.000000
4.800000 37.360000 0.000000
4.800000 40.106667 0.000000
4.800000 42.853333 0.000000
6.400000 8.551111 0.000000
6.400000 11.235556 0.000000
6.400000 13.920000 0.000000
6.400000 16.604444 0.000000
6.400000 19.288889 0.000000
6.400000 21.973333 0.000000
6.400000 24.657778 0.000000
6.400000 27.342222 0.000000
6.400000 30.026667 0.000000
6.400000 32.711111 0.000000
6.400000 35.395556 0.000000
6.400000 38.080000 0.000000
6.400000 40.764444 0.000000
6.400000 43.448889 0.000000
8.000000 9.955556 0.000000
8.000000 12.577778 0.000000
8.000000 15.200000 0.000000
8.000000 17.822222 0.000000
8.000000 20.444444 0.000000
8.000000 23.066667 0.000000
8.000000 25.688889 0.000000
8.000000 28.311111 0.000000
8.000000 30.933333 0.000000
8.000000 33.555556 0.000000
8.000000 36.177778 0.000000
8.000000 38.800000 0.000000
8.000000 41.422222 0.000000
8.000000 44.044444 0.000000
9.600000 11.360000 0.000000
9.600000 13.920000 0.000000
9.600000 16.480000 0.000000
9.600000 19.040000 0.000000
9.600000 21.600000 0.000000
9.600000 24.160000 0.000000
9.600000 26.720000 0.000000
9.600000 29.280000 0.000000
9.600000 31.840000 0.000000
9.600000 34.400000 0.000000
9.600000 36.960000 0.000000
9.600000 39.520000 0.000000
9.600000 42.080000 0.000000
9.600000 44.640000 0.000000
11.200000 12.764444 0.000000
11.200000 15.262222 0.000000
11.200000 17.760000 0.000000
11.200000 20.257778 0.000000
11.200000 22.755556 0.000000
11.200000 25.253333 0.000000
11.200000 27.751111 0.000000
11.200000 30.248889 0.000000
11.200000 32.746667 0.000000
11.200000 35.244444 0.000000
11.200000 37.742222 0.000000
11.200000 40.240000 0.000000
11.200000 42.737778 0.000000
11.200000 45.235556 0.000000
12.800000 14.168889 0.000000
12.800000 16.604444 0.000000
12.800000 19.040000 0.000000
12.800000 21.475556 0.000000
12.800000 23.911111 0.000000
12.800000 26.346667 0.000000
12.800000 28.782222 0.000000
12.800000 31.217778 0.000000
12.800000 33.653333 0.000000
12.800000 36.088889 0.000000
12.800000 38.524444 0.000000
12.800000 40.960000 0.000000
12.800000 43.395556 0.000000
12.800000 45.831111 0.000000
14.400000 15.573333 0.000000
14.400000 17.946667 0.000000
14.400000 20.320000 0.000000
14.400000 22.693333 0.000000
14.400000 25.066667 0.000000
14.400000 27.440000 0.000000
14.400000 29.813333 0.000000
14.400000 32.186667 0.000000
14.400000 34.560000 0.000000
14.400000 36.933333 0.000000
14.400000 39.306667 0.000000
14.400000 41.680000 0.000000
14.400000 44.053333 0.000000
14.400000 46.426667 0.000000
16.000000 16.977778 0.000000
16.000000 19.288889 0.000000
16.000000 21.600000 0.000000
16.000000 23.911111 0.000000
16.000000 26.222222 0.000000
16.000000 28.533333 0.000000
16.000000 30.844444 0.000000
16.000000 33.155556 0.000000
16.000000 35.466667 0.000000
16.000000 37.777778 0.000000
16.000000 40.088889 0.000000
16.000000 42.400000 0.000000
16.000000 44.711111 0.000000
16.000000 47.022222 0.000000
17.600000 18.382222 0.000000
17.600000 20.631111 0.000000
17.600000 22.880000 0.000000
17.600000 25.128889 0.000000
17.600000 27.377778 0.000000
17.600000 29.626667 0.000000
17.600000 31.875556 0.000000
17.600000 34.124444 0.000000
17.600000 36.373333 0.000000
17.600000 38.622222 0.000000
17.600000 40.871111 0.000000
17.600000 43.120000 0.000000
17.600000 45.368889 0.000000
17.600000 47.617778 0.000000
19.200000 19.786667 0.000000
19.200000 21.973333 0.000000
19.200000 24.160000 0.000000
19.200000 26.346667 0.000000
19.200000 28.533333 0.000000
19.200000 30.720000 0.000000
19.200000 32.906667 0.000000
19.200000 35.093333 0.000000
19.200000 37.280000 0.000000
19.200000 39.466667 0.000000
19.200000 41.653333 0.000000
19.200000 43.840000 0.000000
19.200000 46.026667 0.000000
19.200000 48.213333 0.000000
20.800000 21.191111 0.000000
20.800000 23.315556 0.000000
20.800000 25.440000 0.000000
20.800000 27.564444 0.000000
20.800000 29.688889 0.000000
20.800000 31.813333 0.000000
20.800000 33.937778 0.000000
20.800000 36.062222 0.000000
20.800000 38.186667 0.000000
20.800000 40.311111 0.000000
20.800000 42.435556 0.000000
20.800000 44.560000 0.000000
20.800000 46.684444 0.000000
20.800000 48.808889 0.000000
22.400000 22.595556 0.000000
22.400000 24.657778 0.000000
22.400000 26.720000 0.000000
22.400000 28.782222 0.000000
22.400000 30.844444 0.000000
22.400000 32.906667 0.000000
22.400000 34.968889 0.000000
22.400000 37.031111 0.000000
22.400000 39.093333 0.000000
22.400000 41.155556 0.000000
22.400000 43.217778 0.000000
22.400000 45.280000 0.000000
22.400000 47.342222 0.000000
22.400000 49.404444 0.000000
24.000000 24.000000 0.000000
24.000000 26.000000 0.000000
24.000000 28.000000 0.000000
24.000000 30.000000 0.000000
24.000000 32.000000 0.000000
24.000000 34.000000 0.000000
24.000000 36.000000 0.000000
24.000000 38.000000 0.000000
24.000000 40.000000 0.000000
24.000000 42.000000 0.000000
24.000000 44.000000 0.000000
24.000000 46.000000 0.000000
24.000000 48.000000 0.000000
24.000000 50.000000 0.000000
25.600000 25.404444 0.000000
25.600000 27.342222 0.000000
25.600000 29.280000 0.000000
25.600000 31.217778 0.000000
25.600000 33.155556 0.000000
25.600000 35.093333 0.000000
25.600000 37.031111 0.000000
25.600000 38.968889 0.000000
25.600000 40.906667 0.000000
25.600000 42.844444 0.000000
25.600000 44.782222 0.000000
25.600000 46.720000 0.000000
25.600000 48.657778 0.000000
25.600000 50.595556 0.000000
27.200000 26.808889 0.000000
27.200000 28.684444 0.000000
27.200000 30.560000 0.000000
27.200000 32.435556 0.000000
27.200000 34.311111 0.000000
27.200000 36.186667 0.000000
27.200000 38.062222 0.000000
27.200000 39.937778 0.000000
27.200000 41.813333 0.000000
27.200000 43.688889 0.000000
27.200000 45.564444 0.000000
27.200000 47.440000 0.000000
27.200000 49.315556 0.000000
27.200000 51.191111 0.000000
28.800000 28.213333 0.000000
28.800000 30.026667 0.000000
28.800000 31.840000 0.000000
28.800000 33.653333 0.000000
28.800000 35.466667 0.000000
28.800000 37.280000 0.000000
28.800000 39.093333 0.000000
28.800000 40.906667 0.000000
28.800000 42.720000 0.000000
28.800000 44.533333 0.000000
28.800000 46.346667 0.000000
28.800000 48.160000 0.000000
28.800000 49.973333 0.000000
28.800000 51.786667 0.000000
30.400000 29.617778 0.000000
30.400000 31.368889 0.000000
30.400000 33.120000 0.000000
30.400000 34.871111 0.000000
[...]
POINT_DATA 496
SCALARS P float 1
LOOKUP_TABLE default
6.683429
3.912220
-0.673696
-45.992250
5.668165
5.388055
5.104165
4.990026
5.108554
5.457217
5.998487
6.703350
7.499915
8.343411
9.178288
9.961436
10.671404
11.274543
11.763837
12.153999
12.432749
12.614499
12.724397
12.754860
12.716897
12.620042
12.448729
12.195118
11.832882
11.323796
10.589781
9.500679
7.879093
1.151659
4.341818
3.876324
6.028396
5.294401
7.539326
5.967874
8.767592
6.086425
9.754242
5.733751
10.420623
4.839562
10.086526
-7.127075
-5.221288
-6.112101
-5.917707
-6.488128
-6.882950
-7.445593
-7.957128
-8.455056
-8.900531
-9.289547
-9.614331
-9.889278
-10.110521
-10.283680
-10.425939
-10.535682
-10.619455
-10.695878
-10.762018
-10.829014
-10.903990
-11.013463
-11.116072
-11.280226
-11.645532
-11.446163
-14.193379
-10.925834
-15.726398
-11.400938
-5.501446
-1.398593
1.874177
4.312808
6.129357
7.205978
7.604014
7.519523
6.981681
6.228222
5.693529
5.628634
5.613746
5.840601
6.310608
6.717517
6.936651
6.725398
5.957815
4.734482
2.871840
0.347457
-2.766201
-6.497869
-11.817733
-16.008980
5.510087
5.913012
6.371240
6.660272
6.644351
6.231850
5.329263
3.903397
1.967023
-0.515064
-3.628347
-6.983722
-10.993224
-15.788141
5.526441
5.950234
6.306561
6.412250
6.188853
5.571729
4.516070
3.014971
1.051534
-1.322369
-4.150218
-7.313240
-9.838151
-11.080003
5.612482
6.057222
6.323426
6.276962
5.896011
5.128934
3.954693
2.396133
0.444904
-1.853663
-4.358778
-7.031817
-9.638078
-11.107505
5.810673
6.197019
6.334741
6.135896
5.598040
4.703011
3.451084
1.867858
-0.022440
-2.186558
-4.470317
-6.621999
-8.454327
-9.834287
6.141108
6.427329
6.426075
6.080172
5.406483
4.410025
3.099472
1.507346
-0.318367
-2.317129
-4.397833
-6.418284
-8.247352
-9.631755
6.571264
6.717673
6.556884
6.064292
5.270921
4.190095
2.839428
1.266197
-0.487744
-2.372424
-4.242964
-6.032738
-7.749559
-9.269553
7.088167
7.071854
6.744631
6.115965
5.213768
4.061955
2.686420
1.137158
-0.551990
-2.331393
-4.110941
-5.858984
-7.552233
-9.082980
7.660300
7.461578
6.968536
6.209939
5.210664
4.004818
2.614577
1.081859
-0.548837
-2.246453
-3.943480
-5.625379
-7.332080
-8.932781
8.252370
7.873433
7.220267
6.342088
5.260465
4.009195
2.603049
1.093557
-0.497204
-2.154566
-3.811896
-5.477889
-7.187231
-8.808968
8.838997
8.283292
7.480761
6.499812
5.347084
4.054299
2.641445
1.145458
-0.422250
-2.037346
-3.670782
-5.329766
-7.052448
-8.701562
9.390286
8.675652
7.741327
6.669848
5.453845
4.131395
2.709681
1.216196
-0.331597
-1.930072
-3.556434
-5.205810
-6.937316
-8.604226
9.883062
9.033766
7.987580
6.837994
5.573356
4.224117
2.789771
1.303412
-0.235376
-1.823013
-3.439974
-5.088467
-6.827509
-8.501209
10.319256
9.348072
8.207614
6.999720
5.693676
4.319446
2.880493
1.393691
-0.142104
-1.717088
-3.330523
-4.973850
-6.711695
-8.382695
10.674491
9.612998
8.398270
7.141986
5.801255
4.412166
2.965879
1.477411
-0.050028
-1.616971
-3.225359
-4.856423
-6.589815
-8.252197
10.949800
9.823402
8.553257
7.258456
5.895382
4.493034
3.041167
1.557385
0.035469
-1.520292
-3.116143
-4.731658
-6.451867
-8.091837
11.165564
9.978892
8.667958
7.349503
5.968423
4.557293
3.107414
1.628720
0.116710
-1.420705
-3.000570
-4.591670
-6.290881
-7.894786
11.304856
10.083006
8.742821
7.406521
6.014226
4.601937
3.155891
1.687502
0.192606
-1.321919
-2.878084
-4.433953
-6.104528
-7.664609
11.378088
10.134114
8.776978
7.428045
6.033404
4.623560
3.187567
1.737681
0.265480
-1.217119
-2.740378
-4.252082
-5.884682
-7.385216
11.404030
10.131561
8.768117
7.413163
6.021091
4.619818
3.202097
1.777647
0.337891
-1.101480
-2.582218
-4.037083
-5.625195
-7.052608
11.366822
10.076843
8.712014
7.354316
5.972331
4.586765
3.196109
1.808251
0.411687
-0.972275
-2.401570
-3.785881
-5.325241
-6.672372
11.270876
9.962527
8.605745
7.245510
5.884512
4.520766
3.169579
1.831817
0.495527
-0.817803
-2.181862
-3.487968
-4.970357
-6.238526
11.115456
9.775318
8.440852
7.077177
5.750948
4.420849
3.129247
1.857415
0.596463
-0.624088
-1.918581
-3.124999
-4.574184
-5.742320
10.882282
9.497182
8.201756
6.828390
5.559833
4.269794
3.072705
1.897146
0.745658
-0.365859
-1.567578
-2.688654
-4.083326
-5.230096
10.555194
9.098003
7.876651
6.485242
5.325279
4.097120
3.022703
1.980535
0.955696
0.001086
-1.141523
-2.119226
-3.588509
-4.611696
10.090381
8.510507
7.421081
5.971953
4.996129
3.892886
3.051386
2.188499
1.364380
0.553163
-0.452490
-1.404752
-2.808690
-4.062614
9.456739
7.671393
6.851449
5.365209
4.660890
3.741109
3.182390
2.603556
1.921751
1.410016
0.313760
-0.301694
-2.218924
-3.084470
8.429287
6.283808
5.865595
4.538993
4.516817
3.915537
3.824701
3.504281
3.127067
2.771520
1.902526
1.228124
-0.515012
-2.130033
6.988852
4.367179
4.993709
3.965889
4.692538
4.575696
4.644794
5.016737
4.267032
5.032764
3.100922
4.266470
0.273639
1.008259
