# vtk DataFile Version 2.0
patchtest_tri3_mix
ASCII
DATASET POLYDATA
POINTS 861 float
0.000000 0.000000 0.000000
48.000000 44.000000 0.000000
48.000000 60.000000 0.000000
0.000000 44.000000 0.000000
1.200000 1.100000 0.000000
2.400000 2.200000 0.000000
3.600000 3.300000 0.000000
4.800000 4.400000 0.000000
6.000000 5.500000 0.000000
7.200000 6.600000 0.000000
8.400000 7.700000 0.000000
9.600000 8.800000 0.000000
10.800000 9.900000 0.000000
12.000000 11.000000 0.000000
13.200000 12.100000 0.000000
14.400000 13.200000 0.000000
15.600000 14.300000 0.000000
16.800000 15.400000 0.000000
18.000000 16.500000 0.000000
19.200000 17.600000 0.000000
20.400000 18.700000 0.000000
21.600000 19.800000 0.000000
22.800000 20.900000 0.000000
24.000000 22.000000 0.000000
25.200000 23.100000 0.000000
26.400000 24.200000 0.000000
27.600000 25.300000 0.000000
28.800000 26.400000 0.000000
30.000000 27.500000 0.000000
31.200000 28.600000 0.000000
32.400000 29.700000 0.000000
33.600000 30.800000 0.000000
34.800000 31.900000 0.000000
36.000000 33.000000 0.000000
37.200000 34.100000 0.000000
38.400000 35.200000 0.000000
39.600000 36.300000 0.000000
40.800000 37.400000 0.000000
42.000000 38.500000 0.000000
43.200000 39.600000 0.000000
44.400000 40.700000 0.000000
45.600000 41.800000 0.000000
46.800000 42.900000 0.000000
48.000000 44.800000 0.000000
48.000000 45.600000 0.000000
48.000000 46.400000 0.000000
48.000000 47.200000 0.000000
48.000000 48.000000 0.000000
48.000000 48.800000 0.000000
48.000000 49.600000 0.000000
48.000000 50.400000 0.000000
48.000000 51.200000 0.000000
48.000000 52.000000 0.000000
48.000000 52.800000 0.000000
48.000000 53.600000 0.000000
48.000000 54.400000 0.000000
48.000000 55.200000 0.000000
48.000000 56.000000 0.000000
48.000000 56.800000 0.000000
48.000000 57.600000 0.000000
48.000000 58.400000 0.000000
48.000000 59.200000 0.000000
46.800000 59.600000 0.000000
45.600000 59.200000 0.000000
44.400000 58.800000 0.000000
43.200000 58.400000 0.000000
42.000000 58.000000 0.000000
40.800000 57.600000 0.000000
39.600000 57.200000 0.000000
38.400000 56.800000 0.000000
37.200000 56.400000 0.000000
36.000000 56.000000 0.000000
34.800000 55.600000 0.000000
33.600000 55.200000 0.000000
32.400000 54.800000 0.000000
31.200000 54.400000 0.000000
30.000000 54.000000 0.000000
28.800000 53.600000 0.000000
27.600000 53.200000 0.000000
26.400000 52.800000 0.000000
25.200000 52.400000 0.000000
24.000000 52.000000 0.000000
22.800000 51.600000 0.000000
21.600000 51.200000 0.000000
20.400000 50.800000 0.000000
19.200000 50.400000 0.000000
18.000000 50.000000 0.000000
16.800000 49.600000 0.000000
15.600000 49.200000 0.000000
14.400000 48.800000 0.000000
13.200000 48.400000 0.000000
12.000000 48.000000 0.000000
10.800000 47.600000 0.000000
9.600000 47.200000 0.000000
8.400000 46.800000 0.000000
7.200000 46.400000 0.000000
6.000000 46.000000 0.000000
4.800000 45.600000 0.000000
3.600000 45.200000 0.000000
2.400000 44.800000 0.000000
1.200000 44.400000 0.000000
0.000000 41.800000 0.000000
0.000000 39.600000 0.000000
0.000000 37.400000 0.000000
0.000000 35.200000 0.000000
0.000000 33.000000 0.000000
0.000000 30.800000 0.000000
0.000000 28.600000 0.000000
0.000000 26.400000 0.000000
0.000000 24.200000 0.000000
0.000000 22.000000 0.000000
0.000000 19.800000 0.000000
0.000000 17.600000 0.000000
0.000000 15.400000 0.000000
0.000000 13.200000 0.000000
0.000000 11.000000 0.000000
0.000000 8.800000 0.000000
0.000000 6.600000 0.000000
0.000000 4.400000 0.000000
0.000000 2.200000 0.000000
1.200000 3.265000 0.000000
1.200000 5.430000 0.000000
1.200000 7.595000 0.000000
1.200000 9.760000 0.000000
1.200000 11.925000 0.000000
1.200000 14.090000 0.000000
1.200000 16.255000 0.000000
1.200000 18.420000 0.000000
1.200000 20.585000 0.000000
1.200000 22.750000 0.000000
1.200000 24.915000 0.000000
1.200000 27.080000 0.000000
1.200000 29.245000 0.000000
1.200000 31.410000 0.000000
1.200000 33.575000 0.000000
1.200000 35.740000 0.000000
1.200000 37.905000 0.000000
1.200000 40.070000 0.000000
1.200000 42.235000 0.000000
2.400000 4.330000 0.000000
2.400000 6.460000 0.000000
2.400000 8.590000 0.000000
2.400000 10.720000 0.000000
2.400000 12.850000 0.000000
2.400000 14.980000 0.000000
2.400000 17.110000 0.000000
2.400000 19.240000 0.000000
2.400000 21.370000 0.000000
2.400000 23.500000 0.000000
2.400000 25.630000 0.000000
2.400000 27.760000 0.000000
2.400000 29.890000 0.000000
2.400000 32.020000 0.000000
2.400000 34.150000 0.000000
2.400000 36.280000 0.000000
2.400000 38.410000 0.000000
2.400000 40.540000 0.000000
2.400000 42.670000 0.000000
3.600000 5.395000 0.000000
3.600000 7.490000 0.000000
3.600000 9.585000 0.000000
3.600000 11.680000 0.000000
3.600000 13.775000 0.000000
3.600000 15.870000 0.000000
3.600000 17.965000 0.000000
3.600000 20.060000 0.000000
3.600000 22.155000 0.000000
3.600000 24.250000 0.000000
3.600000 26.345000 0.000000
3.600000 28.440000 0.000000
3.600000 30.535000 0.000000
3.600000 32.630000 0.000000
3.600000 34.725000 0.000000
3.600000 36.820000 0.000000
3.600000 38.915000 0.000000
3.600000 41.010000 0.000000
3.600000 43.105000 0.000000
4.800000 6.460000 0.000000
4.800000 8.520000 0.000000
4.800000 10.580000 0.000000
4.800000 12.640000 0.000000
4.800000 14.700000 0.000000
4.800000 16.760000 0.000000
4.800000 18.820000 0.000000
4.800000 20.880000 0.000000
4.800000 22.940000 0.000000
4.800000 25.000000 0.000000
4.800000 27.060000 0.000000
4.800000 29.120000 0.000000
4.800000 31.180000 0.000000
4.800000 33.240000 0.000000
4.800000 35.300000 0.000000
4.800000 37.360000 0.000000
4.800000 39.420000 0.000000
4.800000 41.480000 0.000000
4.800000 43.540000 0.000000
6.000000 7.525000 0.000000
6.000000 9.550000 0.000000
6.000000 11.575000 0.000000
6.000000 13.600000 0.000000
6.000000 15.625000 0.000000
6.000000 17.650000 0.000000
6.000000 19.675000 0.000000
6.000000 21.700000 0.000000
6.000000 23.725000 0.000000
6.000000 25.750000 0.000000
6.000000 27.775000 0.000000
6.000000 29.800000 0.000000
6.000000 31.825000 0.000000
6.000000 33.850000 0.000000
6.000000 35.875000 0.000000
6.000000 37.900000 0.000000
6.000000 39.925000 0.000000
6.000000 41.950000 0.000000
6.000000 43.975000 0.000000
7.200000 8.590000 0.000000
7.200000 10.580000 0.000000
7.200000 12.570000 0.000000
7.200000 14.560000 0.000000
7.200000 16.550000 0.000000
7.200000 18.540000 0.000000
7.200000 20.530000 0.000000
7.200000 22.520000 0.000000
7.200000 24.510000 0.000000
7.200000 26.500000 0.000000
7.200000 28.490000 0.000000
7.200000 30.480000 0.000000
7.200000 32.470000 0.000000
7.200000 34.460000 0.000000
7.200000 36.450000 0.000000
7.200000 38.440000 0.000000
7.200000 40.430000 0.000000
7.200000 42.420000 0.000000
7.200000 44.410000 0.000000
8.400000 9.655000 0.000000
8.400000 11.610000 0.000000
8.400000 13.565000 0.000000
8.400000 15.520000 0.000000
8.400000 17.475000 0.000000
8.400000 19.430000 0.000000
8.400000 21.385000 0.000000
8.400000 23.340000 0.000000
8.400000 25.295000 0.000000
8.400000 27.250000 0.000000
8.400000 29.205000 0.000000
8.400000 31.160000 0.000000
8.400000 33.115000 0.000000
8.400000 35.070000 0.000000
8.400000 37.025000 0.000000
8.400000 38.980000 0.000000
8.400000 40.935000 0.000000
8.400000 42.890000 0.000000
8.400000 44.845000 0.000000
9.600000 10.720000 0.000000
9.600000 12.640000 0.000000
9.600000 14.560000 0.000000
9.600000 16.480000 0.000000
9.600000 18.400000 0.000000
9.600000 20.320000 0.000000
9.600000 22.240000 0.000000
9.600000 24.160000 0.000000
9.600000 26.080000 0.000000
9.600000 28.000000 0.000000
9.600000 29.920000 0.000000
9.600000 31.840000 0.000000
9.600000 33.760000 0.000000
9.600000 35.680000 0.000000
9.600000 37.600000 0.000000
9.600000 39.520000 0.000000
9.600000 41.440000 0.000000
9.600000 43.360000 0.000000
9.600000 45.280000 0.000000
10.800000 11.785000 0.000000
10.800000 13.670000 0.000000
10.800000 15.555000 0.000000
10.800000 17.440000 0.000000
10.800000 19.325000 0.000000
10.800000 21.210000 0.000000
10.800000 23.095000 0.000000
10.800000 24.980000 0.000000
10.800000 26.865000 0.000000
10.800000 28.750000 0.000000
10.800000 30.635000 0.000000
10.800000 32.520000 0.000000
10.800000 34.405000 0.000000
10.800000 36.290000 0.000000
10.800000 38.175000 0.000000
10.800000 40.060000 0.000000
10.800000 41.945000 0.000000
10.800000 43.830000 0.000000
10.800000 45.715000 0.000000
12.000000 12.850000 0.000000
12.000000 14.700000 0.000000
12.000000 16.550000 0.000000
12.000000 18.400000 0.000000
12.000000 20.250000 0.000000
12.000000 22.100000 0.000000
12.000000 23.950000 0.000000
12.000000 25.800000 0.000000
12.000000 27.650000 0.000000
12.000000 29.500000 0.000000
12.000000 31.350000 0.000000
12.000000 33.200000 0.000000
12.000000 35.050000 0.000000
12.000000 36.900000 0.000000
12.000000 38.750000 0.000000
12.000000 40.600000 0.000000
12.000000 42.450000 0.000000
12.000000 44.300000 0.000000
12.000000 46.150000 0.000000
13.200000 13.915000 0.000000
13.200000 15.730000 0.000000
13.200000 17.545000 0.000000
13.200000 19.360000 0.000000
13.200000 21.175000 0.000000
13.200000 22.990000 0.000000
13.200000 24.805000 0.000000
13.200000 26.620000 0.000000
13.200000 28.435000 0.000000
13.200000 30.250000 0.000000
13.200000 32.065000 0.000000
13.200000 33.880000 0.000000
13.200000 35.695000 0.000000
13.200000 37.510000 0.000000
13.200000 39.325000 0.000000
13.200000 41.140000 0.000000
13.200000 42.955000 0.000000
13.200000 44.770000 0.000000
13.200000 46.585000 0.000000
14.400000 14.980000 0.000000
14.400000 16.760000 0.000000
14.400000 18.540000 0.000000
14.400000 20.320000 0.000000
14.400000 22.100000 0.000000
14.400000 23.880000 0.000000
14.400000 25.660000 0.000000
14.400000 27.440000 0.000000
14.400000 29.220000 0.000000
14.400000 31.000000 0.000000
14.400000 32.780000 0.000000
14.400000 34.560000 0.000000
14.400000 36.340000 0.000000
14.400000 38.120000 0.000000
14.400000 39.900000 0.000000
14.400000 41.680000 0.000000
14.400000 43.460000 0.000000
14.400000 45.240000 0.000000
14.400000 47.020000 0.000000
15.600000 16.045000 0.000000
[...]
POINT_DATA 861
SCALARS P float 1
LOOKUP_TABLE default
-18.273702
-364.666476
12.052044
-143.198397
-22.875105
-21.755520
-27.576747
-26.707916
-30.476765
-30.886397
-33.097571
-33.383724
-35.993995
-34.643853
-38.673820
-35.828017
-40.599929
-37.523087
-42.208163
-39.602944
-44.382000
-42.307953
-47.307151
-46.306586
-51.175963
-51.726399
-56.710206
-58.766597
-64.190316
-68.352139
-74.150280
-81.092413
-88.142021
-98.465361
-107.531460
-122.703420
-136.692424
-157.988434
-177.674430
-208.650625
-245.838569
-290.378799
-339.897274
715.955739
-879.497688
964.050737
-980.416408
998.694695
-970.412860
965.705997
-908.558510
882.868520
-797.488728
749.694723
-640.006897
574.947081
-451.484534
379.522765
-256.448366
187.556448
-78.582851
24.135976
-76.976711
-138.076250
-146.965569
-146.671462
-153.360647
-145.892479
-154.322315
-146.551456
-152.155294
-142.653117
-144.984636
-135.237664
-136.223252
-127.507045
-127.767474
-120.084665
-119.318879
-113.328127
-111.636906
-106.768091
-105.261649
-100.651877
-99.264342
-96.363220
-92.745072
-93.592569
-87.375245
-89.919174
-84.684516
-85.532418
-81.762385
-84.563150
-74.637765
-88.520029
-65.047094
-93.689191
-57.914959
-99.646549
-57.260903
42.151546
-94.231568
52.228059
-66.073875
53.096184
-51.777702
57.487019
-40.323414
56.665725
-33.877054
54.629647
-29.599611
49.978484
-27.377203
43.681119
-26.496193
37.203386
-22.254208
33.225998
33.072683
-26.204456
38.173277
-29.429931
39.355251
-34.330109
40.841646
-38.902652
42.076694
-43.047588
43.648925
-48.498622
45.348740
-49.623062
48.944808
-55.815719
50.390311
-46.982860
51.072126
37.838347
-26.860887
41.398486
-28.015558
48.430745
-28.968157
53.725232
-31.442254
57.151801
-37.001738
58.905735
-44.231788
56.193189
-59.369355
53.211605
-72.620569
42.445792
-104.554496
42.470083
37.941732
-29.416942
40.852582
-34.016602
41.680322
-38.219333
42.961420
-42.761822
44.879800
-47.013802
46.020898
-51.339599
51.469312
-53.090830
52.461120
-56.399427
65.019677
-52.362398
54.815478
40.780821
-30.212978
46.016789
-30.229363
51.480705
-32.073266
55.811256
-35.735862
57.870231
-41.496724
59.154237
-51.643902
54.354738
-63.714418
52.940689
-81.946508
37.547414
-92.379203
46.759914
42.172726
-33.684178
43.271722
-37.940039
44.662160
-41.985583
45.928292
-45.922562
48.009177
-50.783454
50.375397
-52.281633
55.880061
-56.951817
58.907907
-51.296874
67.267697
-60.177790
60.047329
44.833604
-32.562725
50.368880
-33.276049
54.497560
-35.505867
57.633212
-40.269822
59.320318
-46.279614
58.061837
-58.149839
54.954659
-67.124131
47.767973
-86.529200
43.765399
-86.273341
49.280008
45.638255
-38.118570
46.621640
-41.458230
47.976469
-45.475386
49.705859
-49.122391
51.251847
-53.019156
55.878744
-53.804936
58.203578
-56.600878
67.169014
-53.192369
65.348127
-65.102617
63.590572
50.075577
-35.213518
54.362409
-36.689717
57.788703
-39.541314
59.543060
-44.401753
60.671921
-51.960836
56.999050
-61.685281
55.523530
-73.508914
45.830807
-84.827220
51.331180
-85.993493
54.282618
49.445502
-41.991372
50.918009
-45.133479
51.922567
-48.543046
53.732641
-52.334988
55.532316
-53.792854
60.319942
-56.547348
63.017542
-54.906836
71.327131
-60.376362
65.814490
-68.565413
63.696662
55.582984
-38.712074
58.657308
-40.326503
61.078385
-43.977696
62.059827
-48.644008
61.196940
-57.601702
58.284939
-65.219509
54.682089
-79.218412
50.207547
-82.164210
55.874630
-86.520858
61.477489
54.561973
-45.672824
55.716783
-48.887577
56.779367
-51.736561
57.945250
-54.904250
61.219788
-55.645501
64.135012
-58.489537
69.937104
-56.877579
71.619346
-67.057250
69.082566
-74.361563
63.939813
61.015677
-42.680388
63.550656
-44.667011
64.575069
-48.475781
65.070577
-54.202178
62.405471
-62.323617
60.916852
-70.913836
55.208700
-81.415118
57.558413
-82.924583
60.096564
-85.938995
66.996871
60.792822
-49.943686
61.278311
-52.659446
62.325492
-55.644330
63.536488
-57.313612
67.202209
-59.333627
69.556435
-60.036922
75.652849
-63.379336
72.771232
-71.996423
72.069834
-81.753260
67.826964
67.053476
-47.203440
68.857875
-50.008545
69.164130
-53.829334
68.329069
-60.738598
65.857430
-67.436569
63.642747
-77.442463
59.959735
-82.336164
64.177254
-86.128394
66.734817
-87.090598
70.435684
67.689969
-55.057341
68.273489
-57.401089
68.781831
-60.076772
70.934578
-61.248303
73.456261
-63.794254
77.075932
-64.090942
79.492908
-71.441158
77.056451
-78.055071
74.748366
-88.133458
74.125373
74.270872
-53.341359
75.159161
-56.434261
75.018381
-61.117790
72.902938
-67.689826
71.252526
-74.553536
67.813393
-83.006688
68.176148
-85.577303
70.609011
-89.690343
74.768350
-91.938917
75.178774
75.853549
-61.333096
76.763477
-63.898274
77.271946
-65.601253
79.557220
-67.502143
81.448538
-69.184667
85.196070
-72.044700
84.142469
-79.461708
83.203752
-86.725104
79.827711
-94.102775
80.517560
82.668040
-61.655904
83.515288
-64.930704
82.244766
-70.337095
80.093692
-76.085612
78.123930
-83.463228
75.521330
-88.580260
77.692780
-91.877282
79.258301
-94.445002
82.781038
-99.099918
83.017062
86.041015
-69.931892
87.248280
-72.255183
88.293569
-73.733610
89.793109
-75.896766
91.933070
-77.407274
93.547600
-82.792928
91.864503
-88.925638
90.430286
-96.953228
88.378264
-102.318926
87.752717
92.966813
-72.455384
94.228413
-76.561190
92.129496
-81.649303
90.158945
-87.241035
87.588332
-93.555736
87.097127
-96.741461
88.545288
-100.257369
90.702300
-102.408177
91.984082
-107.285987
92.923617
98.411628
-81.663310
101.024460
-83.508327
101.883334
-85.284366
102.920928
-87.104401
104.695341
-89.910613
103.999188
-95.547580
102.701356
-101.562625
100.222078
-108.432746
99.436247
-113.781419
97.947270
106.240505
-87.121600
108.057852
-91.629820
105.857599
-96.280510
103.605947
-101.689531
101.410358
-105.833245
101.798701
-108.758912
102.573979
-111.178115
104.490649
-114.066258
104.508187
-117.682412
104.503599
113.953319
-97.155776
118.788826
-99.255414
119.185827
-100.980359
119.922393
-102.750321
120.134876
-106.730989
118.629509
-111.632567
116.659256
-117.686240
114.170865
-122.834398
112.990603
-128.033252
111.646861
123.000972
-106.915064
126.960438
-111.417484
124.468419
-115.582556
121.816036
-119.889143
120.532005
-122.611538
120.345162
-124.860926
121.017655
-126.385976
121.489216
-129.202753
121.127812
-131.998656
119.180515
134.221530
-118.581074
141.969808
-120.927869
141.791768
-122.293204
141.741154
-124.584727
140.338405
-128.258251
138.273205
-132.869810
135.260245
-137.846304
132.848310
-141.862016
130.643158
-145.593917
128.646439
145.012395
-133.356488
152.862131
-138.026783
149.929422
-141.360712
147.129196
-143.798636
145.571032
-145.573883
144.831104
-146.292537
144.660506
-147.225132
143.625348
-148.786994
142.196928
-150.845464
138.124517
160.406649
-148.395074
173.422954
-151.355060
172.375965
-152.031038
170.379197
-153.898462
167.784150
-156.675120
164.129153
-160.538062
160.439668
-163.871562
157.210801
-166.518797
153.930129
-167.933405
149.460681
174.937681
-170.184762
189.639806
-175.075567
185.561435
-176.162421
181.877834
-176.789372
179.017990
-176.513438
177.634784
-175.754586
175.606387
-175.047127
172.533399
-174.334605
168.614073
-174.353584
161.267306
195.862586
-190.931794
217.394229
-194.480519
214.373122
-193.909963
210.256345
-194.015406
205.562698
-195.853168
199.697185
-196.930223
193.787048
-197.267292
188.276404
-197.320915
183.518684
-196.289285
175.322791
216.104360
-222.024982
242.502851
-228.097204
237.496099
-226.535097
231.262072
-224.112916
226.401511
-219.356163
220.993970
-214.863858
215.481323
-211.143441
209.794828
-207.959329
202.934656
-204.568282
189.347541
244.330862
-252.910908
282.377508
-259.806509
276.951080
-255.273609
268.325883
-251.007328
256.819105
-247.485214
247.047586
-244.722665
238.458790
-241.763450
230.031429
-237.561062
221.383050
-231.195523
205.011468
275.412435
-300.216759
324.274529
-308.891227
314.807108
-300.726263
301.447203
-288.795454
291.168128
-279.653429
281.802689
-270.841667
271.435776
-261.224385
259.136230
-251.024428
244.825708
-239.526527
218.535317
315.683995
-347.402380
380.428779
-357.051995
369.277406
-343.382754
350.160262
-334.159017
334.148226
-324.246276
317.397946
-312.401062
299.525413
-298.793471
281.315129
-284.182616
263.269460
-267.312868
232.161590
359.997576
-413.983415
445.329158
-430.847662
430.862268
-413.915801
414.371894
-394.376601
392.601154
-370.945053
367.917121
-345.784740
341.783295
-320.910189
315.317410
-297.631010
288.719116
-273.826188
243.913503
415.229409
-488.766149
535.589159
-514.306783
524.106161
-497.748514
489.067390
-463.682505
446.916397
-426.539728
405.165097
-390.693221
366.949928
-358.348817
333.639728
-330.265726
304.553606
-301.613643
255.193720
488.295417
-601.086178
651.611048
-646.804758
639.042553
-598.789993
578.751437
-535.510617
518.071830
-477.044051
464.483765
-427.301669
418.778821
-386.321552
379.398781
-352.127540
342.196402
-315.697591
273.149875
582.233583
-730.431770
809.505231
-784.760793
754.512622
-700.179748
658.713186
-613.256439
574.482484
-540.875527
506.007705
-482.197368
450.163312
-433.444459
402.617009
-390.400532
357.551484
-340.629033
274.243998
685.243395
-896.360856
956.149024
-912.887762
868.970767
-797.487321
757.206131
-692.385483
666.252352
-609.459630
594.001806
-542.769914
532.765219
-485.150828
475.442243
-430.141231
412.612094
-360.115781
291.828281
805.919996
-1012.222242
1059.254643
-1025.131819
981.632146
-926.791654
879.136402
-832.251895
787.851880
-746.559205
701.340427
-659.917187
609.665526
-564.069672
506.215050
-453.936657
384.091863
-314.849269
204.388429
