# vtk DataFile Version 2.0
patchtest_tri3_mix
ASCII
DATASET POLYDATA
POINTS 32 float
0.000000 -0.500000 0.000000
1.000000 -0.500000 0.000000
1.000000 0.500000 0.000000
0.000000 0.500000 0.000000
0.250000 -0.500000 0.000000
0.500000 -0.500000 0.000000
0.750000 -0.500000 0.000000
1.000000 -0.250000 0.000000
1.000000 -0.000000 0.000000
1.000000 0.250000 0.000000
0.750000 0.500000 0.000000
0.500000 0.500000 0.000000
0.250000 0.500000 0.000000
0.000000 0.250000 0.000000
0.000000 0.000000 0.000000
0.000000 -0.250000 0.000000
0.437670 -0.185106 0.000000
0.819896 -0.292871 0.000000
0.800776 0.322615 0.000000
0.200590 -0.123059 0.000000
0.584840 0.312266 0.000000
0.371933 -0.314619 0.000000
0.557154 0.114732 0.000000
0.369259 0.272370 0.000000
0.804281 -0.080711 0.000000
0.167455 -0.326979 0.000000
0.166608 0.323983 0.000000
0.380944 0.010750 0.000000
0.622662 -0.306200 0.000000
0.780813 0.128744 0.000000
0.617555 -0.083658 0.000000
0.200602 0.107253 0.000000
POLYGONS 46 184
3 0 25 15
3 25 0 4
3 15 19 14
3 19 15 25
3 25 21 19
3 4 5 21
3 16 19 21
3 28 16 21
3 27 16 30
3 21 25 4
3 19 16 27
3 26 13 31
3 3 26 12
3 26 3 13
3 13 14 31
3 31 27 23
3 31 14 19
3 12 23 11
3 12 26 23
3 23 27 22
3 23 26 31
3 19 27 31
3 28 21 5
3 24 28 17
3 6 28 5
3 29 30 24
3 24 30 28
3 28 6 17
3 30 22 27
3 17 1 7
3 1 17 6
3 8 24 7
3 7 24 17
3 29 24 8
3 20 11 23
3 10 20 18
3 10 11 20
3 20 22 29
3 20 23 22
3 29 9 18
3 9 29 8
3 18 2 10
3 2 18 9
3 29 18 20
3 22 30 29
3 30 16 28
POINT_DATA 32
SCALARS P float 1
LOOKUP_TABLE default
3629.838428
2230.341984
-23.663242
-1050.213997
538.026354
-2155.761053
527.333630
-2301.434522
-86.684644
-1187.769259
-5365.478527
-5219.235896
-2482.841936
2262.398942
2431.610679
3176.538622
-2312.793393
-994.885361
4891.774758
-2558.333702
3163.497585
7541.757300
-4172.979954
1532.182992
4407.131330
741.129477
-5325.876144
4221.254774
2073.243305
-3399.648048
-403.592102
-3464.649155
