# vtk DataFile Version 2.0
patchtest_tri3_mix
ASCII
DATASET POLYDATA
POINTS 861 float
0.000000 0.000000 0.000000
48.000000 44.000000 0.000000
48.000000 60.000000 0.000000
0.000000 44.000000 0.000000
1.200000 1.100000 0.000000
2.400000 2.200000 0.000000
3.600000 3.300000 0.000000
4.800000 4.400000 0.000000
6.000000 5.500000 0.000000
7.200000 6.600000 0.000000
8.400000 7.700000 0.000000
9.600000 8.800000 0.000000
10.800000 9.900000 0.000000
12.000000 11.000000 0.000000
13.200000 12.100000 0.000000
14.400000 13.200000 0.000000
15.600000 14.300000 0.000000
16.800000 15.400000 0.000000
18.000000 16.500000 0.000000
19.200000 17.600000 0.000000
20.400000 18.700000 0.000000
21.600000 19.800000 0.000000
22.800000 20.900000 0.000000
24.000000 22.000000 0.000000
25.200000 23.100000 0.000000
26.400000 24.200000 0.000000
27.600000 25.300000 0.000000
28.800000 26.400000 0.000000
30.000000 27.500000 0.000000
31.200000 28.600000 0.000000
32.400000 29.700000 0.000000
33.600000 30.800000 0.000000
34.800000 31.900000 0.000000
36.000000 33.000000 0.000000
37.200000 34.100000 0.000000
38.400000 35.200000 0.000000
39.600000 36.300000 0.000000
40.800000 37.400000 0.000000
42.000000 38.500000 0.000000
43.200000 39.600000 0.000000
44.400000 40.700000 0.000000
45.600000 41.800000 0.000000
46.800000 42.900000 0.000000
48.000000 44.800000 0.000000
48.000000 45.600000 0.000000
48.000000 46.400000 0.000000
48.000000 47.200000 0.000000
48.000000 48.000000 0.000000
48.000000 48.800000 0.000000
48.000000 49.600000 0.000000
48.000000 50.400000 0.000000
48.000000 51.200000 0.000000
48.000000 52.000000 0.000000
48.000000 52.800000 0.000000
48.000000 53.600000 0.000000
48.000000 54.400000 0.000000
48.000000 55.200000 0.000000
48.000000 56.000000 0.000000
48.000000 56.800000 0.000000
48.000000 57.600000 0.000000
48.000000 58.400000 0.000000
48.000000 59.200000 0.000000
46.800000 59.600000 0.000000
45.600000 59.200000 0.000000
44.400000 58.800000 0.000000
43.200000 58.400000 0.000000
42.000000 58.000000 0.000000
40.800000 57.600000 0.000000
39.600000 57.200000 0.000000
38.400000 56.800000 0.000000
37.200000 56.400000 0.000000
36.000000 56.000000 0.000000
34.800000 55.600000 0.000000
33.600000 55.200000 0.000000
32.400000 54.800000 0.000000
31.200000 54.400000 0.000000
30.000000 54.000000 0.000000
28.800000 53.600000 0.000000
27.600000 53.200000 0.000000
26.400000 52.800000 0.000000
25.200000 52.400000 0.000000
24.000000 52.000000 0.000000
22.800000 51.600000 0.000000
21.600000 51.200000 0.000000
20.400000 50.800000 0.000000
19.200000 50.400000 0.000000
18.000000 50.000000 0.000000
16.800000 49.600000 0.000000
15.600000 49.200000 0.000000
14.400000 48.800000 0.000000
13.200000 48.400000 0.000000
12.000000 48.000000 0.000000
10.800000 47.600000 0.000000
9.600000 47.200000 0.000000
8.400000 46.800000 0.000000
7.200000 46.400000 0.000000
6.000000 46.000000 0.000000
4.800000 45.600000 0.000000
3.600000 45.200000 0.000000
2.400000 44.800000 0.000000
1.200000 44.400000 0.000000
0.000000 41.800000 0.000000
0.000000 39.600000 0.000000
0.000000 37.400000 0.000000
0.000000 35.200000 0.000000
0.000000 33.000000 0.000000
0.000000 30.800000 0.000000
0.000000 28.600000 0.000000
0.000000 26.400000 0.000000
0.000000 24.200000 0.000000
0.000000 22.000000 0.000000
0.000000 19.800000 0.000000
0.000000 17.600000 0.000000
0.000000 15.400000 0.000000
0.000000 13.200000 0.000000
0.000000 11.000000 0.000000
0.000000 8.800000 0.000000
0.000000 6.600000 0.000000
0.000000 4.400000 0.000000
0.000000 2.200000 0.000000
1.200000 3.265000 0.000000
1.200000 5.430000 0.000000
1.200000 7.595000 0.000000
1.200000 9.760000 0.000000
1.200000 11.925000 0.000000
1.200000 14.090000 0.000000
1.200000 16.255000 0.000000
1.200000 18.420000 0.000000
1.200000 20.585000 0.000000
1.200000 22.750000 0.000000
1.200000 24.915000 0.000000
1.200000 27.080000 0.000000
1.200000 29.245000 0.000000
1.200000 31.410000 0.000000
1.200000 33.575000 0.000000
1.200000 35.740000 0.000000
1.200000 37.905000 0.000000
1.200000 40.070000 0.000000
1.200000 42.235000 0.000000
2.400000 4.330000 0.000000
2.400000 6.460000 0.000000
2.400000 8.590000 0.000000
2.400000 10.720000 0.000000
2.400000 12.850000 0.000000
2.400000 14.980000 0.000000
2.400000 17.110000 0.000000
2.400000 19.240000 0.000000
2.400000 21.370000 0.000000
2.400000 23.500000 0.000000
2.400000 25.630000 0.000000
2.400000 27.760000 0.000000
2.400000 29.890000 0.000000
2.400000 32.020000 0.000000
2.400000 34.150000 0.000000
2.400000 36.280000 0.000000
2.400000 38.410000 0.000000
2.400000 40.540000 0.000000
2.400000 42.670000 0.000000
3.600000 5.395000 0.000000
3.600000 7.490000 0.000000
3.600000 9.585000 0.000000
3.600000 11.680000 0.000000
3.600000 13.775000 0.000000
3.600000 15.870000 0.000000
3.600000 17.965000 0.000000
3.600000 20.060000 0.000000
3.600000 22.155000 0.000000
3.600000 24.250000 0.000000
3.600000 26.345000 0.000000
3.600000 28.440000 0.000000
3.600000 30.535000 0.000000
3.600000 32.630000 0.000000
3.600000 34.725000 0.000000
3.600000 36.820000 0.000000
3.600000 38.915000 0.000000
3.600000 41.010000 0.000000
3.600000 43.105000 0.000000
4.800000 6.460000 0.000000
4.800000 8.520000 0.000000
4.800000 10.580000 0.000000
4.800000 12.640000 0.000000
4.800000 14.700000 0.000000
4.800000 16.760000 0.000000
4.800000 18.820000 0.000000
4.800000 20.880000 0.000000
4.800000 22.940000 0.000000
4.800000 25.000000 0.000000
4.800000 27.060000 0.000000
4.800000 29.120000 0.000000
4.800000 31.180000 0.000000
4.800000 33.240000 0.000000
4.800000 35.300000 0.000000
4.800000 37.360000 0.000000
4.800000 39.420000 0.000000
4.800000 41.480000 0.000000
4.800000 43.540000 0.000000
6.000000 7.525000 0.000000
6.000000 9.550000 0.000000
6.000000 11.575000 0.000000
6.000000 13.600000 0.000000
6.000000 15.625000 0.000000
6.000000 17.650000 0.000000
6.000000 19.675000 0.000000
6.000000 21.700000 0.000000
6.000000 23.725000 0.000000
6.000000 25.750000 0.000000
6.000000 27.775000 0.000000
6.000000 29.800000 0.000000
6.000000 31.825000 0.000000
6.000000 33.850000 0.000000
6.000000 35.875000 0.000000
6.000000 37.900000 0.000000
6.000000 39.925000 0.000000
6.000000 41.950000 0.000000
6.000000 43.975000 0.000000
7.200000 8.590000 0.000000
7.200000 10.580000 0.000000
7.200000 12.570000 0.000000
7.200000 14.560000 0.000000
7.200000 16.550000 0.000000
7.200000 18.540000 0.000000
7.200000 20.530000 0.000000
7.200000 22.520000 0.000000
7.200000 24.510000 0.000000
7.200000 26.500000 0.000000
7.200000 28.490000 0.000000
7.200000 30.480000 0.000000
7.200000 32.470000 0.000000
7.200000 34.460000 0.000000
7.200000 36.450000 0.000000
7.200000 38.440000 0.000000
7.200000 40.430000 0.000000
7.200000 42.420000 0.000000
7.200000 44.410000 0.000000
8.400000 9.655000 0.000000
8.400000 11.610000 0.000000
8.400000 13.565000 0.000000
8.400000 15.520000 0.000000
8.400000 17.475000 0.000000
8.400000 19.430000 0.000000
8.400000 21.385000 0.000000
8.400000 23.340000 0.000000
8.400000 25.295000 0.000000
8.400000 27.250000 0.000000
8.400000 29.205000 0.000000
8.400000 31.160000 0.000000
8.400000 33.115000 0.000000
8.400000 35.070000 0.000000
8.400000 37.025000 0.000000
8.400000 38.980000 0.000000
8.400000 40.935000 0.000000
8.400000 42.890000 0.000000
8.400000 44.845000 0.000000
9.600000 10.720000 0.000000
9.600000 12.640000 0.000000
9.600000 14.560000 0.000000
9.600000 16.480000 0.000000
9.600000 18.400000 0.000000
9.600000 20.320000 0.000000
9.600000 22.240000 0.000000
9.600000 24.160000 0.000000
9.600000 26.080000 0.000000
9.600000 28.000000 0.000000
9.600000 29.920000 0.000000
9.600000 31.840000 0.000000
9.600000 33.760000 0.000000
9.600000 35.680000 0.000000
9.600000 37.600000 0.000000
9.600000 39.520000 0.000000
9.600000 41.440000 0.000000
9.600000 43.360000 0.000000
9.600000 45.280000 0.000000
10.800000 11.785000 0.000000
10.800000 13.670000 0.000000
10.800000 15.555000 0.000000
10.800000 17.440000 0.000000
10.800000 19.325000 0.000000
10.800000 21.210000 0.000000
10.800000 23.095000 0.000000
10.800000 24.980000 0.000000
10.800000 26.865000 0.000000
10.800000 28.750000 0.000000
10.800000 30.635000 0.000000
10.800000 32.520000 0.000000
10.800000 34.405000 0.000000
10.800000 36.290000 0.000000
10.800000 38.175000 0.000000
10.800000 40.060000 0.000000
10.800000 41.945000 0.000000
10.800000 43.830000 0.000000
10.800000 45.715000 0.000000
12.000000 12.850000 0.000000
12.000000 14.700000 0.000000
12.000000 16.550000 0.000000
12.000000 18.400000 0.000000
12.000000 20.250000 0.000000
12.000000 22.100000 0.000000
12.000000 23.950000 0.000000
12.000000 25.800000 0.000000
12.000000 27.650000 0.000000
12.000000 29.500000 0.000000
12.000000 31.350000 0.000000
12.000000 33.200000 0.000000
12.000000 35.050000 0.000000
12.000000 36.900000 0.000000
12.000000 38.750000 0.000000
12.000000 40.600000 0.000000
12.000000 42.450000 0.000000
12.000000 44.300000 0.000000
12.000000 46.150000 0.000000
13.200000 13.915000 0.000000
13.200000 15.730000 0.000000
13.200000 17.545000 0.000000
13.200000 19.360000 0.000000
13.200000 21.175000 0.000000
13.200000 22.990000 0.000000
13.200000 24.805000 0.000000
13.200000 26.620000 0.000000
13.200000 28.435000 0.000000
13.200000 30.250000 0.000000
13.200000 32.065000 0.000000
13.200000 33.880000 0.000000
13.200000 35.695000 0.000000
13.200000 37.510000 0.000000
13.200000 39.325000 0.000000
13.200000 41.140000 0.000000
13.200000 42.955000 0.000000
13.200000 44.770000 0.000000
13.200000 46.585000 0.000000
14.400000 14.980000 0.000000
14.400000 16.760000 0.000000
14.400000 18.540000 0.000000
14.400000 20.320000 0.000000
14.400000 22.100000 0.000000
14.400000 23.880000 0.000000
14.400000 25.660000 0.000000
14.400000 27.440000 0.000000
14.400000 29.220000 0.000000
14.400000 31.000000 0.000000
14.400000 32.780000 0.000000
14.400000 34.560000 0.000000
14.400000 36.340000 0.000000
14.400000 38.120000 0.000000
14.400000 39.900000 0.000000
14.400000 41.680000 0.000000
14.400000 43.460000 0.000000
14.400000 45.240000 0.000000
14.400000 47.020000 0.000000
15.600000 16.045000 0.000000
[...]
POINT_DATA 861
SCALARS P float 1
LOOKUP_TABLE default
-18.527263
-367.249858
12.126905
-143.717682
-23.116989
-22.038883
-27.856390
-27.011366
-30.791075
-31.209636
-33.438960
-33.732162
-36.357801
-35.021140
-39.062132
-36.234030
-41.018753
-37.958655
-42.662047
-40.073405
-44.873897
-42.820309
-47.842403
-46.866952
-51.762920
-52.342919
-57.358897
-59.451512
-64.914252
-69.122256
-74.968894
-81.970618
-89.084056
-99.486072
-108.635274
-123.915238
-138.024230
-159.464366
-179.305462
-210.482013
-247.918121
-292.704442
-342.502011
720.843957
-885.422574
970.348175
-986.750518
1004.895736
-976.388895
971.377178
-913.871596
887.755707
-801.907000
753.590720
-643.359663
577.732977
-453.717290
381.213784
-257.643746
188.289464
-78.921971
24.149558
-77.297563
-138.749321
-147.743316
-147.558757
-154.290726
-146.884866
-155.355340
-147.623574
-153.243132
-143.748419
-146.069593
-136.310708
-137.274909
-128.540665
-128.774441
-121.069612
-120.273689
-114.260668
-112.538236
-107.648063
-106.110785
-101.481532
-100.064280
-97.146441
-93.499682
-94.334170
-88.089106
-90.623360
-85.362051
-86.202129
-82.406370
-85.200872
-75.249527
-89.127325
-65.627792
-94.266795
-58.465018
-100.195698
-57.778910
42.651946
-94.727712
52.706513
-66.544752
53.551250
-52.223859
57.919612
-40.742839
57.072745
-34.271051
55.010481
-29.964568
50.330714
-27.715874
44.001827
-26.800502
37.495630
-22.526537
33.466023
33.351778
-26.492940
38.468429
-29.742173
39.681745
-34.667079
41.189777
-39.268049
42.452567
-43.437877
44.051708
-48.916849
45.780665
-50.065436
49.406615
-56.284407
50.881087
-47.474603
51.590590
38.123746
-27.159188
41.718107
-28.348980
48.774778
-29.327649
54.101250
-31.828961
57.552900
-37.416310
59.334544
-44.672953
56.645801
-59.839705
53.689135
-73.117509
42.946634
-105.079633
42.996286
38.242938
-29.736122
41.178762
-34.352843
42.030846
-38.583536
43.333835
-43.149758
45.279864
-47.428236
46.447322
-51.780129
51.927166
-53.557261
52.948701
-56.892903
65.539461
-52.882435
55.363116
41.103147
-30.541450
46.358858
-30.587994
51.851051
-32.454441
56.208823
-36.146092
58.294057
-41.933447
59.605561
-52.110591
54.830864
-64.210353
53.444035
-82.472527
38.075720
-92.933313
47.317016
42.501103
-34.028140
43.628044
-38.304973
45.037029
-42.376115
46.328215
-46.335871
48.434505
-51.223669
50.829165
-52.746681
56.365077
-57.444956
59.424152
-51.816836
67.816404
-60.727736
60.622947
45.184689
-32.924086
50.738322
-33.659050
54.895276
-35.913610
58.054862
-40.704938
59.769806
-46.742371
58.537353
-58.643914
55.457397
-67.647967
48.297900
-87.084895
44.323015
-86.855523
49.867537
46.001047
-38.490403
47.006354
-41.854992
48.380617
-45.893568
50.135182
-49.565035
51.706040
-53.486944
56.362937
-54.298229
58.717914
-57.122278
67.716103
-53.741247
65.925429
-65.683300
64.195496
50.455417
-35.607482
54.765619
-37.102208
58.215484
-39.979798
59.994206
-44.865553
61.149757
-52.453968
57.502454
-62.208822
56.055198
-74.063455
46.389175
-85.412465
51.919939
-86.605192
54.901020
49.845993
-42.399468
51.334833
-45.564156
52.361797
-48.994322
54.194793
-52.810611
56.020520
-54.291965
60.837421
-57.072667
63.564675
-55.458647
71.906443
-60.957476
66.422147
-69.177720
64.332232
55.999844
-39.141182
59.098542
-40.776462
61.539983
-44.451290
62.546093
-49.142852
61.707553
-58.129597
58.821269
-65.776441
55.245538
-79.806731
50.798435
-82.780691
56.496120
-87.164250
62.128685
55.002302
-46.124391
56.174614
-49.357354
57.258882
-52.227895
58.446858
-55.417751
61.747629
-56.181784
64.690294
-59.051248
70.521937
-57.464621
72.233447
-67.674124
69.724400
-75.008477
64.608492
61.479642
-43.153540
64.035142
-45.161700
65.080155
-48.991874
65.598215
-54.743504
62.955842
-62.892176
61.492378
-71.510527
55.809350
-82.041251
58.187375
-83.577247
60.754577
-86.617475
67.684079
61.280398
-50.444832
61.786706
-53.177875
62.852875
-56.183092
64.086143
-57.872681
67.776795
-59.914805
70.156765
-60.641387
76.281479
-64.009053
73.426066
-72.654182
72.751149
-82.440094
68.533906
67.572714
-47.732945
69.395926
-50.556475
69.721994
-54.398144
68.907053
-61.331332
66.456886
-68.054332
64.265575
-78.087335
60.606458
-83.007061
64.851244
-86.824615
67.436444
-87.810518
71.164347
68.238241
-55.618859
68.842617
-57.979776
69.368697
-60.673050
71.542589
-61.863371
74.087284
-64.430183
77.731453
-64.747989
80.173658
-72.122766
77.761394
-78.762306
75.476964
-88.867607
74.878155
74.855668
-53.940085
75.765238
-57.048913
75.641040
-61.751861
73.543576
-68.345684
71.913067
-75.232366
68.494716
-83.710262
68.880617
-86.304031
71.338101
-90.439774
75.523386
-92.710063
75.957973
76.477308
-61.971819
77.408448
-64.551463
77.933324
-66.269552
80.237533
-68.187197
82.149328
-69.888122
85.919544
-72.767886
84.887689
-80.206928
83.970685
-87.493910
80.615179
-94.894865
81.326206
83.334866
-62.340448
84.206469
-65.630175
82.949487
-71.053234
80.813620
-76.820515
78.861209
-84.218823
76.276744
-89.356638
78.469034
-92.674215
80.056667
-95.260804
83.601962
-99.934616
83.858760
86.756457
-70.667868
87.990111
-73.002791
89.049090
-74.493382
90.564570
-76.670557
92.722071
-78.195970
94.355519
-83.599113
92.691021
-89.750460
91.274078
-97.798271
89.239178
-103.182888
88.630095
93.736479
-73.249473
95.027472
-77.368383
92.939152
-82.470018
90.980519
-88.076666
88.423175
-94.408291
87.947207
-97.610474
89.411791
-101.141976
91.587444
-103.307247
92.886744
-108.199202
93.841909
99.241245
-82.521977
101.889718
-84.376875
102.759074
-86.161406
103.808614
-87.991482
105.596795
-90.808618
104.914182
-96.458002
103.629935
-102.487860
101.162270
-109.372348
100.388144
-114.734126
98.909097
107.137889
-88.055968
108.995878
-92.575204
106.802166
-97.235159
104.558297
-102.654701
102.370779
-106.809145
102.768813
-109.745822
103.555509
-112.173165
105.484244
-115.069466
105.512506
-118.692912
105.515259
114.926927
-98.172323
119.812987
-100.279975
120.216216
-102.008646
120.959397
-103.782595
121.179496
-107.768590
119.681707
-112.675833
117.715981
-118.737321
115.231999
-123.891933
114.055569
-129.095378
112.711603
124.059256
-108.030487
128.079384
-112.542368
125.588159
-116.709876
122.936524
-121.020372
121.654092
-123.746169
121.468306
-125.996573
122.145046
-127.520880
122.619018
-130.336172
122.258146
-133.129168
120.304850
135.377728
-119.804120
143.202358
-122.156453
143.022800
-123.517319
142.971075
-125.804564
141.566805
-129.473129
139.499136
-134.082825
136.479520
-139.055457
134.060502
-143.065608
131.847551
-146.789747
129.834503
146.277099
-134.710205
154.220251
-139.387879
151.279570
-142.714237
148.468850
-145.144216
146.899874
-146.911792
146.151059
-147.616509
145.971222
-148.535407
144.924918
-150.082244
143.482421
-152.122528
139.382173
161.797371
-149.892250
174.934290
-152.857057
173.874063
-153.513315
171.860576
-155.360743
169.250295
-158.118044
165.574002
-161.964880
161.863800
-165.278996
158.611552
-167.902302
155.304005
-169.288651
150.790315
176.471306
-171.860637
191.324490
-176.756640
187.220185
-177.815568
183.505762
-178.416462
180.614997
-178.110593
179.207762
-177.319946
177.149237
-176.576587
174.040910
-175.825025
170.083516
-175.802065
162.675040
197.563769
-192.804312
219.287695
-196.354419
216.231790
-195.739158
212.074763
-195.797923
207.339977
-197.597296
201.426042
-198.627508
195.464524
-198.914259
189.901911
-198.916737
185.091648
-197.829898
176.810235
217.994359
-224.141440
244.639599
-230.222720
239.583662
-228.603032
233.282880
-226.121177
228.361034
-221.290407
222.885363
-216.726478
217.305169
-212.937011
211.551723
-209.683246
204.621688
-206.215305
190.917248
246.443732
-255.307013
284.817586
-262.215976
279.325342
-257.588656
270.610918
-253.224124
258.996037
-249.606846
249.129467
-246.754659
240.450678
-243.706150
231.931231
-239.409808
223.185123
-232.938663
206.651993
277.791365
-302.969619
327.075463
-311.663568
317.503743
-303.373708
303.998977
-291.294077
293.594999
-282.027012
284.110293
-273.092964
273.620355
-263.347268
261.190310
-253.012293
246.742931
-241.366573
220.234965
318.372593
-350.552985
383.656892
-360.221451
372.375965
-346.359869
353.065599
-336.972417
336.883608
-326.890498
319.958525
-314.867199
301.903134
-301.075302
283.507226
-286.280284
265.277658
-269.217439
233.890359
363.035074
-417.618144
449.066404
-434.544555
434.420390
-417.389065
417.719356
-397.608761
395.698831
-373.917466
370.752517
-348.492714
344.358189
-323.361659
317.644090
-299.841313
290.811691
-275.792173
245.658688
418.675602
-492.976743
539.982300
-518.616207
528.324703
-501.792742
492.926566
-467.338536
450.377685
-429.801450
408.241337
-393.585500
369.673882
-360.909288
336.051369
-332.533589
306.686451
-303.593794
256.917720
492.258336
-606.053611
656.808616
-651.998683
644.008352
-603.476126
583.131408
-539.603140
521.880329
-480.597009
467.791160
-430.391289
421.661432
-389.020775
381.923339
-354.494560
344.405014
-317.730336
274.873092
586.809726
-736.254968
815.738101
-790.813465
760.186064
-705.425630
663.550060
-617.706526
578.587829
-544.662711
509.514012
-485.444468
453.178753
-436.243558
405.217451
-392.809552
359.770283
-342.622314
275.870036
690.442225
-903.175789
963.218977
-919.632804
875.215438
-803.224993
762.461088
-697.214504
670.691090
-613.557829
597.782788
-546.268430
535.992190
-488.128566
478.171905
-432.634281
414.850702
-362.064964
293.324293
811.789033
-1019.549138
1066.744131
-1032.302908
988.345496
-933.018848
884.906111
-837.584761
792.780146
-751.095117
705.499588
-663.701454
613.078882
-567.110656
508.883560
-456.230299
385.999213
-316.335251
205.356962
