# vtk DataFile Version 2.0
patchtest_tri3_mix
ASCII
DATASET POLYDATA
POINTS 26 float
0.000000 -0.500000 0.000000
1.000000 -0.500000 0.000000
1.000000 0.500000 0.000000
0.000000 0.500000 0.000000
0.250000 -0.500000 0.000000
0.500000 -0.500000 0.000000
0.750000 -0.500000 0.000000
1.000000 -0.250000 0.000000
1.000000 -0.000000 0.000000
1.000000 0.250000 0.000000
0.750000 0.500000 0.000000
0.500000 0.500000 0.000000
0.250000 0.500000 0.000000
0.000000 0.250000 0.000000
0.000000 0.000000 0.000000
0.000000 -0.250000 0.000000
0.638121 -0.199235 0.000000
0.197558 0.320733 0.000000
0.429806 0.269892 0.000000
0.232605 0.109726 0.000000
0.675782 0.265831 0.000000
0.279966 -0.309040 0.000000
0.755242 0.032161 0.000000
0.816038 -0.309795 0.000000
0.484716 0.017985 0.000000
0.235949 -0.107150 0.000000
POLYGONS 34 136
3 15 0 21
3 14 15 25
3 15 21 25
3 21 0 4
3 24 21 16
3 25 21 24
3 14 25 19
3 13 17 3
3 17 13 19
3 3 17 12
3 19 24 18
3 24 19 25
3 12 18 11
3 12 17 18
3 24 20 18
3 18 17 19
3 13 14 19
3 21 4 5
3 5 6 16
3 16 6 23
3 24 16 22
3 23 1 7
3 1 23 6
3 16 23 22
3 22 23 7
3 11 20 10
3 18 20 11
3 10 20 9
3 22 8 9
3 8 22 7
3 2 10 9
3 9 20 22
3 22 20 24
3 16 21 5
POINT_DATA 26
SCALARS P float 1
LOOKUP_TABLE default
3029.277426
244.752671
-43.124234
-5582.178482
3470.092801
2235.392602
117.868890
-61.372055
71.470408
19.805742
-835.612820
-1576.455152
-4171.988672
578.590846
-359.334925
895.712716
369.952023
1662.651511
-459.188269
-3164.146276
-407.206461
-367.805382
-119.137053
548.317968
-15.016593
2802.539207
