# vtk DataFile Version 2.0
patchtest_tri3_mix
ASCII
DATASET POLYDATA
POINTS 20 float
0.000000 -0.500000 0.000000
1.000000 -0.500000 0.000000
1.000000 0.500000 0.000000
0.000000 0.500000 0.000000
0.333333 -0.500000 0.000000
0.666667 -0.500000 0.000000
1.000000 -0.166667 0.000000
1.000000 0.166667 0.000000
0.666667 0.500000 0.000000
0.333333 0.500000 0.000000
0.000000 0.166667 0.000000
0.000000 -0.166667 0.000000
0.211986 -0.282714 0.000000
0.499383 0.300542 0.000000
0.802077 -0.017043 0.000000
0.642013 -0.223046 0.000000
0.756873 0.250898 0.000000
0.842976 -0.327379 0.000000
0.417967 -0.117332 0.000000
0.192638 -0.008782 0.000000
POLYGONS 26 104
3 11 0 12
3 12 4 18
3 4 12 0
3 18 4 15
3 11 12 19
3 19 12 18
3 3 10 9
3 13 9 10
3 13 19 18
3 9 13 8
3 13 10 19
3 10 11 19
3 18 14 13
3 15 5 17
3 5 15 4
3 17 1 6
3 1 17 5
3 15 17 14
3 14 17 6
3 8 16 2
3 13 16 8
3 7 2 16
3 7 14 6
3 7 16 14
3 14 16 13
3 18 15 14
POINT_DATA 20
SCALARS P float 1
LOOKUP_TABLE default
2685.928455
-639.946254
-69.573320
-4496.809837
2049.706853
952.710477
61.659369
-41.208335
-1184.858189
-2423.255191
1703.904591
1312.069054
974.021349
-544.445199
-155.436176
-4.972915
-203.182393
986.769190
937.346473
-1316.164232
