# vtk DataFile Version 2.0
patchtest_tri3_mix
ASCII
DATASET POLYDATA
POINTS 231 float
0.000000 0.000000 0.000000
48.000000 44.000000 0.000000
48.000000 60.000000 0.000000
0.000000 44.000000 0.000000
2.400000 2.200000 0.000000
4.800000 4.400000 0.000000
7.200000 6.600000 0.000000
9.600000 8.800000 0.000000
12.000000 11.000000 0.000000
14.400000 13.200000 0.000000
16.800000 15.400000 0.000000
19.200000 17.600000 0.000000
21.600000 19.800000 0.000000
24.000000 22.000000 0.000000
26.400000 24.200000 0.000000
28.800000 26.400000 0.000000
31.200000 28.600000 0.000000
33.600000 30.800000 0.000000
36.000000 33.000000 0.000000
38.400000 35.200000 0.000000
40.800000 37.400000 0.000000
43.200000 39.600000 0.000000
45.600000 41.800000 0.000000
48.000000 45.600000 0.000000
48.000000 47.200000 0.000000
48.000000 48.800000 0.000000
48.000000 50.400000 0.000000
48.000000 52.000000 0.000000
48.000000 53.600000 0.000000
48.000000 55.200000 0.000000
48.000000 56.800000 0.000000
48.000000 58.400000 0.000000
45.600000 59.200000 0.000000
43.200000 58.400000 0.000000
40.800000 57.600000 0.000000
38.400000 56.800000 0.000000
36.000000 56.000000 0.000000
33.600000 55.200000 0.000000
31.200000 54.400000 0.000000
28.800000 53.600000 0.000000
26.400000 52.800000 0.000000
24.000000 52.000000 0.000000
21.600000 51.200000 0.000000
19.200000 50.400000 0.000000
16.800000 49.600000 0.000000
14.400000 48.800000 0.000000
12.000000 48.000000 0.000000
9.600000 47.200000 0.000000
7.200000 46.400000 0.000000
4.800000 45.600000 0.000000
2.400000 44.800000 0.000000
0.000000 39.600000 0.000000
0.000000 35.200000 0.000000
0.000000 30.800000 0.000000
0.000000 26.400000 0.000000
0.000000 22.000000 0.000000
0.000000 17.600000 0.000000
0.000000 13.200000 0.000000
0.000000 8.800000 0.000000
0.000000 4.400000 0.000000
2.400000 6.460000 0.000000
2.400000 10.720000 0.000000
2.400000 14.980000 0.000000
2.400000 19.240000 0.000000
2.400000 23.500000 0.000000
2.400000 27.760000 0.000000
2.400000 32.020000 0.000000
2.400000 36.280000 0.000000
2.400000 40.540000 0.000000
4.800000 8.520000 0.000000
4.800000 12.640000 0.000000
4.800000 16.760000 0.000000
4.800000 20.880000 0.000000
4.800000 25.000000 0.000000
4.800000 29.120000 0.000000
4.800000 33.240000 0.000000
4.800000 37.360000 0.000000
4.800000 41.480000 0.000000
7.200000 10.580000 0.000000
7.200000 14.560000 0.000000
7.200000 18.540000 0.000000
7.200000 22.520000 0.000000
7.200000 26.500000 0.000000
7.200000 30.480000 0.000000
7.200000 34.460000 0.000000
7.200000 38.440000 0.000000
7.200000 42.420000 0.000000
9.600000 12.640000 0.000000
9.600000 16.480000 0.000000
9.600000 20.320000 0.000000
9.600000 24.160000 0.000000
9.600000 28.000000 0.000000
9.600000 31.840000 0.000000
9.600000 35.680000 0.000000
9.600000 39.520000 0.000000
9.600000 43.360000 0.000000
12.000000 14.700000 0.000000
12.000000 18.400000 0.000000
12.000000 22.100000 0.000000
12.000000 25.800000 0.000000
12.000000 29.500000 0.000000
12.000000 33.200000 0.000000
12.000000 36.900000 0.000000
12.000000 40.600000 0.000000
12.000000 44.300000 0.000000
14.400000 16.760000 0.000000
14.400000 20.320000 0.000000
14.400000 23.880000 0.000000
14.400000 27.440000 0.000000
14.400000 31.000000 0.000000
14.400000 34.560000 0.000000
14.400000 38.120000 0.000000
14.400000 41.680000 0.000000
14.400000 45.240000 0.000000
16.800000 18.820000 0.000000
16.800000 22.240000 0.000000
16.800000 25.660000 0.000000
16.800000 29.080000 0.000000
16.800000 32.500000 0.000000
16.800000 35.920000 0.000000
16.800000 39.340000 0.000000
16.800000 42.760000 0.000000
16.800000 46.180000 0.000000
19.200000 20.880000 0.000000
19.200000 24.160000 0.000000
19.200000 27.440000 0.000000
19.200000 30.720000 0.000000
19.200000 34.000000 0.000000
19.200000 37.280000 0.000000
19.200000 40.560000 0.000000
19.200000 43.840000 0.000000
19.200000 47.120000 0.000000
21.600000 22.940000 0.000000
21.600000 26.080000 0.000000
21.600000 29.220000 0.000000
21.600000 32.360000 0.000000
21.600000 35.500000 0.000000
21.600000 38.640000 0.000000
21.600000 41.780000 0.000000
21.600000 44.920000 0.000000
21.600000 48.060000 0.000000
24.000000 25.000000 0.000000
24.000000 28.000000 0.000000
24.000000 31.000000 0.000000
24.000000 34.000000 0.000000
24.000000 37.000000 0.000000
24.000000 40.000000 0.000000
24.000000 43.000000 0.000000
24.000000 46.000000 0.000000
24.000000 49.000000 0.000000
26.400000 27.060000 0.000000
26.400000 29.920000 0.000000
26.400000 32.780000 0.000000
26.400000 35.640000 0.000000
26.400000 38.500000 0.000000
26.400000 41.360000 0.000000
26.400000 44.220000 0.000000
26.400000 47.080000 0.000000
26.400000 49.940000 0.000000
28.800000 29.120000 0.000000
28.800000 31.840000 0.000000
28.800000 34.560000 0.000000
28.800000 37.280000 0.000000
28.800000 40.000000 0.000000
28.800000 42.720000 0.000000
28.800000 45.440000 0.000000
28.800000 48.160000 0.000000
28.800000 50.880000 0.000000
31.200000 31.180000 0.000000
31.200000 33.760000 0.000000
31.200000 36.340000 0.000000
31.200000 38.920000 0.000000
31.200000 41.500000 0.000000
31.200000 44.080000 0.000000
31.200000 46.660000 0.000000
31.200000 49.240000 0.000000
31.200000 51.820000 0.000000
33.600000 33.240000 0.000000
33.600000 35.680000 0.000000
33.600000 38.120000 0.000000
33.600000 40.560000 0.000000
33.600000 43.000000 0.000000
33.600000 45.440000 0.000000
33.600000 47.880000 0.000000
33.600000 50.320000 0.000000
33.600000 52.760000 0.000000
36.000000 35.300000 0.000000
36.000000 37.600000 0.000000
36.000000 39.900000 0.000000
36.000000 42.200000 0.000000
36.000000 44.500000 0.000000
36.000000 46.800000 0.000000
36.000000 49.100000 0.000000
36.000000 51.400000 0.000000
36.000000 53.700000 0.000000
38.400000 37.360000 0.000000
38.400000 39.520000 0.000000
38.400000 41.680000 0.000000
38.400000 43.840000 0.000000
38.400000 46.000000 0.000000
38.400000 48.160000 0.000000
38.400000 50.320000 0.000000
38.400000 52.480000 0.000000
38.400000 54.640000 0.000000
40.800000 39.420000 0.000000
40.800000 41.440000 0.000000
40.800000 43.460000 0.000000
40.800000 45.480000 0.000000
40.800000 47.500000 0.000000
40.800000 49.520000 0.000000
40.800000 51.540000 0.000000
40.800000 53.560000 0.000000
40.800000 55.580000 0.000000
43.200000 41.480000 0.000000
43.200000 43.360000 0.000000
43.200000 45.240000 0.000000
43.200000 47.120000 0.000000
43.200000 49.000000 0.000000
43.200000 50.880000 0.000000
43.200000 52.760000 0.000000
43.200000 54.640000 0.000000
43.200000 56.520000 0.000000
45.600000 43.540000 0.000000
45.600000 45.280000 0.000000
45.600000 47.020000 0.000000
45.600000 48.760000 0.000000
45.600000 50.500000 0.000000
45.600000 52.240000 0.000000
45.600000 53.980000 0.000000
45.600000 55.720000 0.000000
45.600000 57.460000 0.000000
POLYGONS 400 1600
3 0 4 59
3 59 4 60
3 59 60 58
3 58 60 61
3 58 61 57
3 57 61 62
3 57 62 56
3 56 62 63
3 56 63 55
3 55 63 64
3 55 64 54
3 54 64 65
3 54 65 53
3 53 65 66
3 53 66 52
3 52 66 67
3 52 67 51
3 51 67 68
3 51 68 3
3 3 68 50
3 4 5 60
3 60 5 69
3 60 69 61
3 61 69 70
3 61 70 62
3 62 70 71
3 62 71 63
3 63 71 72
3 63 72 64
3 64 72 73
3 64 73 65
3 65 73 74
3 65 74 66
3 66 74 75
3 66 75 67
3 67 75 76
3 67 76 68
3 68 76 77
3 68 77 50
3 50 77 49
3 5 6 69
3 69 6 78
3 69 78 70
3 70 78 79
3 70 79 71
3 71 79 80
3 71 80 72
3 72 80 81
3 72 81 73
3 73 81 82
3 73 82 74
3 74 82 83
3 74 83 75
3 75 83 84
3 75 84 76
3 76 84 85
3 76 85 77
3 77 85 86
3 77 86 49
3 49 86 48
3 6 7 78
3 78 7 87
3 78 87 79
3 79 87 88
3 79 88 80
3 80 88 89
3 80 89 81
3 81 89 90
3 81 90 82
3 82 90 91
3 82 91 83
3 83 91 92
3 83 92 84
3 84 92 93
3 84 93 85
3 85 93 94
3 85 94 86
3 86 94 95
3 86 95 48
3 48 95 47
3 7 8 87
3 87 8 96
3 87 96 88
3 88 96 97
3 88 97 89
3 89 97 98
3 89 98 90
3 90 98 99
3 90 99 91
3 91 99 100
3 91 100 92
3 92 100 101
3 92 101 93
3 93 101 102
3 93 102 94
3 94 102 103
3 94 103 95
3 95 103 104
3 95 104 47
3 47 104 46
3 8 9 96
3 96 9 105
3 96 105 97
3 97 105 106
3 97 106 98
3 98 106 107
3 98 107 99
3 99 107 108
3 99 108 100
3 100 108 109
3 100 109 101
3 101 109 110
3 101 110 102
3 102 110 111
3 102 111 103
3 103 111 112
3 103 112 104
3 104 112 113
3 104 113 46
3 46 113 45
3 9 10 105
3 105 10 114
3 105 114 106
3 106 114 115
3 106 115 107
3 107 115 116
3 107 116 108
3 108 116 117
3 108 117 109
3 109 117 118
3 109 118 110
3 110 118 119
3 110 119 111
3 111 119 120
3 111 120 112
3 112 120 121
3 112 121 113
3 113 121 122
3 113 122 45
3 45 122 44
3 10 11 114
3 114 11 123
3 114 123 115
3 115 123 124
3 115 124 116
3 116 124 125
3 116 125 117
3 117 125 126
3 117 126 118
3 118 126 127
3 118 127 119
3 119 127 128
3 119 128 120
3 120 128 129
3 120 129 121
3 121 129 130
3 121 130 122
3 122 130 131
3 122 131 44
3 44 131 43
3 11 12 123
3 123 12 132
3 123 132 124
3 124 132 133
3 124 133 125
3 125 133 134
3 125 134 126
3 126 134 135
3 126 135 127
3 127 135 136
3 127 136 128
3 128 136 137
3 128 137 129
3 129 137 138
3 129 138 130
3 130 138 139
3 130 139 131
3 131 139 140
3 131 140 43
3 43 140 42
3 12 13 132
3 132 13 141
3 132 141 133
3 133 141 142
3 133 142 134
3 134 142 143
3 134 143 135
3 135 143 144
3 135 144 136
3 136 144 145
3 136 145 137
3 137 145 146
3 137 146 138
3 138 146 147
3 138 147 139
3 139 147 148
3 139 148 140
3 140 148 149
3 140 149 42
3 42 149 41
3 13 14 141
3 141 14 150
3 141 150 142
3 142 150 151
3 142 151 143
3 143 151 152
3 143 152 144
3 144 152 153
3 144 153 145
3 145 153 154
3 145 154 146
3 146 154 155
3 146 155 147
3 147 155 156
3 147 156 148
3 148 156 157
3 148 157 149
3 149 157 158
3 149 158 41
3 41 158 40
3 14 15 150
3 150 15 159
3 150 159 151
3 151 159 160
3 151 160 152
3 152 160 161
3 152 161 153
3 153 161 162
3 153 162 154
3 154 162 163
3 154 163 155
3 155 163 164
3 155 164 156
3 156 164 165
3 156 165 157
3 157 165 166
3 157 166 158
3 158 166 167
3 158 167 40
3 40 167 39
3 15 16 159
3 159 16 168
3 159 168 160
3 160 168 169
3 160 169 161
3 161 169 170
3 161 170 162
3 162 170 171
3 162 171 163
3 163 171 172
3 163 172 164
3 164 172 173
3 164 173 165
3 165 173 174
3 165 174 166
3 166 174 175
3 166 175 167
3 167 175 176
3 167 176 39
3 39 176 38
3 16 17 168
3 168 17 177
3 168 177 169
3 169 177 178
3 169 178 170
3 170 178 179
3 170 179 171
3 171 179 180
3 171 180 172
3 172 180 181
3 172 181 173
3 173 181 182
3 173 182 174
3 174 182 183
3 174 183 175
3 175 183 184
3 175 184 176
3 176 184 185
3 176 185 38
3 38 185 37
3 17 18 177
3 177 18 186
3 177 186 178
3 178 186 187
3 178 187 179
3 179 187 188
3 179 188 180
3 180 188 189
3 180 189 181
3 181 189 190
3 181 190 182
3 182 190 191
3 182 191 183
3 183 191 192
3 183 192 184
3 184 192 193
3 184 193 185
3 185 193 194
3 185 194 37
3 37 194 36
3 18 19 186
3 186 19 195
3 186 195 187
3 187 195 196
3 187 196 188
3 188 196 197
3 188 197 189
3 189 197 198
3 189 198 190
3 190 198 199
3 190 199 191
3 191 199 200
3 191 200 192
3 192 200 201
3 192 201 193
3 193 201 202
3 193 202 194
3 194 202 203
3 194 203 36
3 36 203 35
3 19 20 195
3 195 20 204
3 195 204 196
3 196 204 205
3 196 205 197
3 197 205 206
3 197 206 198
3 198 206 207
3 198 207 199
3 199 207 208
3 199 208 200
3 200 208 209
3 200 209 201
3 201 209 210
3 201 210 202
3 202 210 211
3 202 211 203
3 203 211 212
3 203 212 35
3 35 212 34
3 20 21 204
3 204 21 213
3 204 213 205
3 205 213 214
3 205 214 206
3 206 214 215
3 206 215 207
3 207 215 216
3 207 216 208
3 208 216 217
3 208 217 209
3 209 217 218
3 209 218 210
3 210 218 219
3 210 219 211
3 211 219 220
3 211 220 212
3 212 220 221
3 212 221 34
3 34 221 33
3 21 22 213
3 213 22 222
3 213 222 214
3 214 222 223
3 214 223 215
3 215 223 224
3 215 224 216
3 216 224 225
3 216 225 217
3 217 225 226
3 217 226 218
3 218 226 227
3 218 227 219
3 219 227 228
3 219 228 220
3 220 228 229
3 220 229 221
3 221 229 230
3 221 230 33
3 33 230 32
3 22 1 222
3 222 1 23
3 222 23 223
3 223 23 24
3 223 24 224
3 224 24 25
3 224 25 225
3 225 25 26
3 225 26 226
3 226 26 27
3 226 27 227
3 227 27 28
3 227 28 228
3 228 28 29
3 228 29 229
3 229 29 30
3 229 30 230
3 230 30 31
3 230 31 32
3 32 31 2
POINT_DATA 231
SCALARS P float 1
LOOKUP_TABLE default
2.527738
4.103468
-0.264737
-16.162451
3.316098
4.239596
4.583222
5.312672
6.117578
7.019095
7.921311
8.754143
9.459500
10.024424
10.402236
10.638105
10.744728
10.719125
10.574075
10.285272
9.787857
8.958238
7.432119
-0.173706
6.277854
2.818590
7.432400
4.499178
7.888271
5.649564
6.784801
7.859586
-6.278002
-3.877135
-5.335450
-5.672034
-6.446398
-7.082908
-7.635565
-8.071126
-8.396367
-8.639372
-8.798466
-8.940159
-9.017351
-9.150670
-9.390494
-9.176899
-11.190268
-7.655186
-18.129055
-8.044674
-3.699920
-0.098710
2.396577
4.021064
4.840228
4.911688
4.428490
3.614359
4.047778
4.713854
4.897815
4.467355
3.312649
1.381713
-1.346382
-5.182295
-12.485409
4.567171
4.901089
4.734142
4.004357
2.654258
0.642627
-2.057120
-4.892764
-7.754873
5.042687
5.160169
4.727410
3.732266
2.172297
0.067269
-2.706898
-6.135926
-9.359934
5.570671
5.403062
4.717712
3.521624
1.843409
-0.247335
-2.601977
-4.926249
-7.036682
6.193940
5.723041
4.804257
3.426792
1.661567
-0.461609
-2.863425
-5.322765
-7.684651
6.836835
6.053535
4.934787
3.415779
1.614574
-0.407716
-2.541571
-4.683171
-6.997706
7.488820
6.402167
5.112531
3.479016
1.634607
-0.398596
-2.555274
-4.729213
-7.014193
8.080714
6.734295
5.305728
3.588339
1.736647
-0.247983
-2.330894
-4.463102
-6.818204
8.592234
7.024574
5.500294
3.709490
1.835444
-0.159018
-2.244293
-4.361340
-6.692474
8.999715
7.251393
5.668297
3.826795
1.950821
-0.029493
-2.096568
-4.198220
-6.539802
9.307243
7.419312
5.802307
3.920973
2.044000
0.071498
-1.972933
-4.032646
-6.336530
9.482892
7.504723
5.881957
3.974764
2.118009
0.169965
-1.836563
-3.836331
-6.086752
9.571506
7.508672
5.912448
3.984777
2.168284
0.266011
-1.676626
-3.588742
-5.749283
9.560675
7.417152
5.873537
3.941819
2.185156
0.357273
-1.488545
-3.273192
-5.333129
9.444587
7.215734
5.755817
3.832566
2.208846
0.465796
-1.227198
-2.884455
-4.788484
9.190670
6.863363
5.534560
3.613579
2.172506
0.673061
-0.913076
-2.277422
-4.268514
8.743862
6.262461
5.253998
3.398256
2.246065
0.958237
-0.218314
-1.685613
-3.241036
7.948396
5.211838
4.499921
3.287278
2.446214
1.935636
0.474579
0.115804
-3.271953
6.637042
4.190478
3.803702
3.807697
3.380803
3.776569
2.405398
2.266665
-0.386320
