# vtk DataFile Version 2.0
patchtest_tri3_mix
ASCII
DATASET POLYDATA
POINTS 153 float
0.000000 0.000000 0.000000
48.000000 44.000000 0.000000
48.000000 60.000000 0.000000
0.000000 44.000000 0.000000
3.000000 2.750000 0.000000
6.000000 5.500000 0.000000
9.000000 8.250000 0.000000
12.000000 11.000000 0.000000
15.000000 13.750000 0.000000
18.000000 16.500000 0.000000
21.000000 19.250000 0.000000
24.000000 22.000000 0.000000
27.000000 24.750000 0.000000
30.000000 27.500000 0.000000
33.000000 30.250000 0.000000
36.000000 33.000000 0.000000
39.000000 35.750000 0.000000
42.000000 38.500000 0.000000
45.000000 41.250000 0.000000
48.000000 46.000000 0.000000
48.000000 48.000000 0.000000
48.000000 50.000000 0.000000
48.000000 52.000000 0.000000
48.000000 54.000000 0.000000
48.000000 56.000000 0.000000
48.000000 58.000000 0.000000
45.000000 59.000000 0.000000
42.000000 58.000000 0.000000
39.000000 57.000000 0.000000
36.000000 56.000000 0.000000
33.000000 55.000000 0.000000
30.000000 54.000000 0.000000
27.000000 53.000000 0.000000
24.000000 52.000000 0.000000
21.000000 51.000000 0.000000
18.000000 50.000000 0.000000
15.000000 49.000000 0.000000
12.000000 48.000000 0.000000
9.000000 47.000000 0.000000
6.000000 46.000000 0.000000
3.000000 45.000000 0.000000
0.000000 38.500000 0.000000
0.000000 33.000000 0.000000
0.000000 27.500000 0.000000
0.000000 22.000000 0.000000
0.000000 16.500000 0.000000
0.000000 11.000000 0.000000
0.000000 5.500000 0.000000
3.000000 8.031250 0.000000
3.000000 13.312500 0.000000
3.000000 18.593750 0.000000
3.000000 23.875000 0.000000
3.000000 29.156250 0.000000
3.000000 34.437500 0.000000
3.000000 39.718750 0.000000
6.000000 10.562500 0.000000
6.000000 15.625000 0.000000
6.000000 20.687500 0.000000
6.000000 25.750000 0.000000
6.000000 30.812500 0.000000
6.000000 35.875000 0.000000
6.000000 40.937500 0.000000
9.000000 13.093750 0.000000
9.000000 17.937500 0.000000
9.000000 22.781250 0.000000
9.000000 27.625000 0.000000
9.000000 32.468750 0.000000
9.000000 37.312500 0.000000
9.000000 42.156250 0.000000
12.000000 15.625000 0.000000
12.000000 20.250000 0.000000
12.000000 24.875000 0.000000
12.000000 29.500000 0.000000
12.000000 34.125000 0.000000
12.000000 38.750000 0.000000
12.000000 43.375000 0.000000
15.000000 18.156250 0.000000
15.000000 22.562500 0.000000
15.000000 26.968750 0.000000
15.000000 31.375000 0.000000
15.000000 35.781250 0.000000
15.000000 40.187500 0.000000
15.000000 44.593750 0.000000
18.000000 20.687500 0.000000
18.000000 24.875000 0.000000
18.000000 29.062500 0.000000
18.000000 33.250000 0.000000
18.000000 37.437500 0.000000
18.000000 41.625000 0.000000
18.000000 45.812500 0.000000
21.000000 23.218750 0.000000
21.000000 27.187500 0.000000
21.000000 31.156250 0.000000
21.000000 35.125000 0.000000
21.000000 39.093750 0.000000
21.000000 43.062500 0.000000
21.000000 47.031250 0.000000
24.000000 25.750000 0.000000
24.000000 29.500000 0.000000
24.000000 33.250000 0.000000
24.000000 37.000000 0.000000
24.000000 40.750000 0.000000
24.000000 44.500000 0.000000
24.000000 48.250000 0.000000
27.000000 28.281250 0.000000
27.000000 31.812500 0.000000
27.000000 35.343750 0.000000
27.000000 38.875000 0.000000
27.000000 42.406250 0.000000
27.000000 45.937500 0.000000
27.000000 49.468750 0.000000
30.000000 30.812500 0.000000
30.000000 34.125000 0.000000
30.000000 37.437500 0.000000
30.000000 40.750000 0.000000
30.000000 44.062500 0.000000
30.000000 47.375000 0.000000
30.000000 50.687500 0.000000
33.000000 33.343750 0.000000
33.000000 36.437500 0.000000
33.000000 39.531250 0.000000
33.000000 42.625000 0.000000
33.000000 45.718750 0.000000
33.000000 48.812500 0.000000
33.000000 51.906250 0.000000
36.000000 35.875000 0.000000
36.000000 38.750000 0.000000
36.000000 41.625000 0.000000
36.000000 44.500000 0.000000
36.000000 47.375000 0.000000
36.000000 50.250000 0.000000
36.000000 53.125000 0.000000
39.000000 38.406250 0.000000
39.000000 41.062500 0.000000
39.000000 43.718750 0.000000
39.000000 46.375000 0.000000
39.000000 49.031250 0.000000
39.000000 51.687500 0.000000
39.000000 54.343750 0.000000
42.000000 40.937500 0.000000
42.000000 43.375000 0.000000
42.000000 45.812500 0.000000
42.000000 48.250000 0.000000
42.000000 50.687500 0.000000
42.000000 53.125000 0.000000
42.000000 55.562500 0.000000
45.000000 43.468750 0.000000
45.000000 45.687500 0.000000
45.000000 47.906250 0.000000
45.000000 50.125000 0.000000
45.000000 52.343750 0.000000
45.000000 54.562500 0.000000
45.000000 56.781250 0.000000
POLYGONS 256 1024
3 0 4 47
3 47 4 48
3 47 48 46
3 46 48 49
3 46 49 45
3 45 49 50
3 45 50 44
3 44 50 51
3 44 51 43
3 43 51 52
3 43 52 42
3 42 52 53
3 42 53 41
3 41 53 54
3 41 54 3
3 3 54 40
3 4 5 48
3 48 5 55
3 48 55 49
3 49 55 56
3 49 56 50
3 50 56 57
3 50 57 51
3 51 57 58
3 51 58 52
3 52 58 59
3 52 59 53
3 53 59 60
3 53 60 54
3 54 60 61
3 54 61 40
3 40 61 39
3 5 6 55
3 55 6 62
3 55 62 56
3 56 62 63
3 56 63 57
3 57 63 64
3 57 64 58
3 58 64 65
3 58 65 59
3 59 65 66
3 59 66 60
3 60 66 67
3 60 67 61
3 61 67 68
3 61 68 39
3 39 68 38
3 6 7 62
3 62 7 69
3 62 69 63
3 63 69 70
3 63 70 64
3 64 70 71
3 64 71 65
3 65 71 72
3 65 72 66
3 66 72 73
3 66 73 67
3 67 73 74
3 67 74 68
3 68 74 75
3 68 75 38
3 38 75 37
3 7 8 69
3 69 8 76
3 69 76 70
3 70 76 77
3 70 77 71
3 71 77 78
3 71 78 72
3 72 78 79
3 72 79 73
3 73 79 80
3 73 80 74
3 74 80 81
3 74 81 75
3 75 81 82
3 75 82 37
3 37 82 36
3 8 9 76
3 76 9 83
3 76 83 77
3 77 83 84
3 77 84 78
3 78 84 85
3 78 85 79
3 79 85 86
3 79 86 80
3 80 86 87
3 80 87 81
3 81 87 88
3 81 88 82
3 82 88 89
3 82 89 36
3 36 89 35
3 9 10 83
3 83 10 90
3 83 90 84
3 84 90 91
3 84 91 85
3 85 91 92
3 85 92 86
3 86 92 93
3 86 93 87
3 87 93 94
3 87 94 88
3 88 94 95
3 88 95 89
3 89 95 96
3 89 96 35
3 35 96 34
3 10 11 90
3 90 11 97
3 90 97 91
3 91 97 98
3 91 98 92
3 92 98 99
3 92 99 93
3 93 99 100
3 93 100 94
3 94 100 101
3 94 101 95
3 95 101 102
3 95 102 96
3 96 102 103
3 96 103 34
3 34 103 33
3 11 12 97
3 97 12 104
3 97 104 98
3 98 104 105
3 98 105 99
3 99 105 106
3 99 106 100
3 100 106 107
3 100 107 101
3 101 107 108
3 101 108 102
3 102 108 109
3 102 109 103
3 103 109 110
3 103 110 33
3 33 110 32
3 12 13 104
3 104 13 111
3 104 111 105
3 105 111 112
3 105 112 106
3 106 112 113
3 106 113 107
3 107 113 114
3 107 114 108
3 108 114 115
3 108 115 109
3 109 115 116
3 109 116 110
3 110 116 117
3 110 117 32
3 32 117 31
3 13 14 111
3 111 14 118
3 111 118 112
3 112 118 119
3 112 119 113
3 113 119 120
3 113 120 114
3 114 120 121
3 114 121 115
3 115 121 122
3 115 122 116
3 116 122 123
3 116 123 117
3 117 123 124
3 117 124 31
3 31 124 30
3 14 15 118
3 118 15 125
3 118 125 119
3 119 125 126
3 119 126 120
3 120 126 127
3 120 127 121
3 121 127 128
3 121 128 122
3 122 128 129
3 122 129 123
3 123 129 130
3 123 130 124
3 124 130 131
3 124 131 30
3 30 131 29
3 15 16 125
3 125 16 132
3 125 132 126
3 126 132 133
3 126 133 127
3 127 133 134
3 127 134 128
3 128 134 135
3 128 135 129
3 129 135 136
3 129 136 130
3 130 136 137
3 130 137 131
3 131 137 138
3 131 138 29
3 29 138 28
3 16 17 132
3 132 17 139
3 132 139 133
3 133 139 140
3 133 140 134
3 134 140 141
3 134 141 135
3 135 141 142
3 135 142 136
3 136 142 143
3 136 143 137
3 137 143 144
3 137 144 138
3 138 144 145
3 138 145 28
3 28 145 27
3 17 18 139
3 139 18 146
3 139 146 140
3 140 146 147
3 140 147 141
3 141 147 148
3 141 148 142
3 142 148 149
3 142 149 143
3 143 149 150
3 143 150 144
3 144 150 151
3 144 151 145
3 145 151 152
3 145 152 27
3 27 152 26
3 18 1 146
3 146 1 19
3 146 19 147
3 147 19 20
3 147 20 148
3 148 20 21
3 148 21 149
3 149 21 22
3 149 22 150
3 150 22 23
3 150 23 151
3 151 23 24
3 151 24 152
3 152 24 25
3 152 25 26
3 26 25 2
POINT_DATA 153
SCALARS P float 1
LOOKUP_TABLE default
7.508848
4.575939
-0.656744
-24.337180
5.067398
5.224254
5.587111
6.502446
7.935964
9.388925
10.670139
11.577000
12.159141
12.405552
12.401925
12.198213
11.712122
10.809387
8.912637
0.405592
7.690858
4.341061
8.398879
7.138374
6.748833
10.400596
-8.247956
-4.722851
-6.830167
-7.512473
-8.499449
-9.222703
-9.737451
-10.093121
-10.294826
-10.474044
-10.604138
-10.491863
-11.944836
-8.857436
-15.538692
-9.103632
-3.036532
3.679886
6.947452
7.670511
6.612385
5.294684
6.085444
6.722850
6.351715
4.675571
1.665874
-3.935566
-18.121679
5.811917
6.458789
5.728097
3.309195
-0.694460
-3.853468
-6.467154
6.314669
6.210244
4.915672
2.651399
-1.239140
-6.464100
-10.026899
6.869054
6.321026
4.521060
1.929114
-0.968111
-3.763150
-7.035117
7.675860
6.499172
4.514328
1.775619
-1.451420
-4.741264
-7.780272
8.551006
6.784467
4.588767
1.968713
-0.820004
-3.814388
-7.179847
9.356412
7.133098
4.780429
2.003446
-0.913102
-3.903519
-7.097842
9.963238
7.419465
5.018776
2.271861
-0.574111
-3.581753
-6.856671
10.369221
7.594217
5.151233
2.331544
-0.480013
-3.408920
-6.569668
10.599096
7.660964
5.272449
2.454094
-0.301439
-3.143860
-6.179854
10.635658
7.555616
5.259867
2.464326
-0.100205
-2.853258
-5.613171
10.492279
7.294450
5.156720
2.393556
0.081839
-2.338037
-5.010478
10.146591
6.657703
5.144484
2.257312
0.615984
-1.926831
-3.689638
9.458983
5.440346
4.550888
2.622312
0.968149
0.070354
-3.859564
8.339397
4.291399
4.406456
3.623968
3.322597
1.756004
0.759260
