# vtk DataFile Version 2.0
patchtest_tri3_mix
ASCII
DATASET POLYDATA
POINTS 1891 float
0.000000 0.000000 0.000000
48.000000 44.000000 0.000000
48.000000 60.000000 0.000000
0.000000 44.000000 0.000000
0.800000 0.733333 0.000000
1.600000 1.466667 0.000000
2.400000 2.200000 0.000000
3.200000 2.933333 0.000000
4.000000 3.666667 0.000000
4.800000 4.400000 0.000000
5.600000 5.133333 0.000000
6.400000 5.866667 0.000000
7.200000 6.600000 0.000000
8.000000 7.333333 0.000000
8.800000 8.066667 0.000000
9.600000 8.800000 0.000000
10.400000 9.533333 0.000000
11.200000 10.266667 0.000000
12.000000 11.000000 0.000000
12.800000 11.733333 0.000000
13.600000 12.466667 0.000000
14.400000 13.200000 0.000000
15.200000 13.933333 0.000000
16.000000 14.666667 0.000000
16.800000 15.400000 0.000000
17.600000 16.133333 0.000000
18.400000 16.866667 0.000000
19.200000 17.600000 0.000000
20.000000 18.333333 0.000000
20.800000 19.066667 0.000000
21.600000 19.800000 0.000000
22.400000 20.533333 0.000000
23.200000 21.266667 0.000000
24.000000 22.000000 0.000000
24.800000 22.733333 0.000000
25.600000 23.466667 0.000000
26.400000 24.200000 0.000000
27.200000 24.933333 0.000000
28.000000 25.666667 0.000000
28.800000 26.400000 0.000000
29.600000 27.133333 0.000000
30.400000 27.866667 0.000000
31.200000 28.600000 0.000000
32.000000 29.333333 0.000000
32.800000 30.066667 0.000000
33.600000 30.800000 0.000000
34.400000 31.533333 0.000000
35.200000 32.266667 0.000000
36.000000 33.000000 0.000000
36.800000 33.733333 0.000000
37.600000 34.466667 0.000000
38.400000 35.200000 0.000000
39.200000 35.933333 0.000000
40.000000 36.666667 0.000000
40.800000 37.400000 0.000000
41.600000 38.133333 0.000000
42.400000 38.866667 0.000000
43.200000 39.600000 0.000000
44.000000 40.333333 0.000000
44.800000 41.066667 0.000000
45.600000 41.800000 0.000000
46.400000 42.533333 0.000000
47.200000 43.266667 0.000000
48.000000 44.533333 0.000000
48.000000 45.066667 0.000000
48.000000 45.600000 0.000000
48.000000 46.133333 0.000000
48.000000 46.666667 0.000000
48.000000 47.200000 0.000000
48.000000 47.733333 0.000000
48.000000 48.266667 0.000000
48.000000 48.800000 0.000000
48.000000 49.333333 0.000000
48.000000 49.866667 0.000000
48.000000 50.400000 0.000000
48.000000 50.933333 0.000000
48.000000 51.466667 0.000000
48.000000 52.000000 0.000000
48.000000 52.533333 0.000000
48.000000 53.066667 0.000000
48.000000 53.600000 0.000000
48.000000 54.133333 0.000000
48.000000 54.666667 0.000000
48.000000 55.200000 0.000000
48.000000 55.733333 0.000000
48.000000 56.266667 0.000000
48.000000 56.800000 0.000000
48.000000 57.333333 0.000000
48.000000 57.866667 0.000000
48.000000 58.400000 0.000000
48.000000 58.933333 0.000000
48.000000 59.466667 0.000000
47.200000 59.733333 0.000000
46.400000 59.466667 0.000000
45.600000 59.200000 0.000000
44.800000 58.933333 0.000000
44.000000 58.666667 0.000000
43.200000 58.400000 0.000000
42.400000 58.133333 0.000000
41.600000 57.866667 0.000000
40.800000 57.600000 0.000000
40.000000 57.333333 0.000000
39.200000 57.066667 0.000000
38.400000 56.800000 0.000000
37.600000 56.533333 0.000000
36.800000 56.266667 0.000000
36.000000 56.000000 0.000000
35.200000 55.733333 0.000000
34.400000 55.466667 0.000000
33.600000 55.200000 0.000000
32.800000 54.933333 0.000000
32.000000 54.666667 0.000000
31.200000 54.400000 0.000000
30.400000 54.133333 0.000000
29.600000 53.866667 0.000000
28.800000 53.600000 0.000000
28.000000 53.333333 0.000000
27.200000 53.066667 0.000000
26.400000 52.800000 0.000000
25.600000 52.533333 0.000000
24.800000 52.266667 0.000000
24.000000 52.000000 0.000000
23.200000 51.733333 0.000000
22.400000 51.466667 0.000000
21.600000 51.200000 0.000000
20.800000 50.933333 0.000000
20.000000 50.666667 0.000000
19.200000 50.400000 0.000000
18.400000 50.133333 0.000000
17.600000 49.866667 0.000000
16.800000 49.600000 0.000000
16.000000 49.333333 0.000000
15.200000 49.066667 0.000000
14.400000 48.800000 0.000000
13.600000 48.533333 0.000000
12.800000 48.266667 0.000000
12.000000 48.000000 0.000000
11.200000 47.733333 0.000000
10.400000 47.466667 0.000000
9.600000 47.200000 0.000000
8.800000 46.933333 0.000000
8.000000 46.666667 0.000000
7.200000 46.400000 0.000000
6.400000 46.133333 0.000000
5.600000 45.866667 0.000000
4.800000 45.600000 0.000000
4.000000 45.333333 0.000000
3.200000 45.066667 0.000000
2.400000 44.800000 0.000000
1.600000 44.533333 0.000000
0.800000 44.266667 0.000000
0.000000 42.533333 0.000000
0.000000 41.066667 0.000000
0.000000 39.600000 0.000000
0.000000 38.133333 0.000000
0.000000 36.666667 0.000000
0.000000 35.200000 0.000000
0.000000 33.733333 0.000000
0.000000 32.266667 0.000000
0.000000 30.800000 0.000000
0.000000 29.333333 0.000000
0.000000 27.866667 0.000000
0.000000 26.400000 0.000000
0.000000 24.933333 0.000000
0.000000 23.466667 0.000000
0.000000 22.000000 0.000000
0.000000 20.533333 0.000000
0.000000 19.066667 0.000000
0.000000 17.600000 0.000000
0.000000 16.133333 0.000000
0.000000 14.666667 0.000000
0.000000 13.200000 0.000000
0.000000 11.733333 0.000000
0.000000 10.266667 0.000000
0.000000 8.800000 0.000000
0.000000 7.333333 0.000000
0.000000 5.866667 0.000000
0.000000 4.400000 0.000000
0.000000 2.933333 0.000000
0.000000 1.466667 0.000000
0.800000 2.184444 0.000000
0.800000 3.635556 0.000000
0.800000 5.086667 0.000000
0.800000 6.537778 0.000000
0.800000 7.988889 0.000000
0.800000 9.440000 0.000000
0.800000 10.891111 0.000000
0.800000 12.342222 0.000000
0.800000 13.793333 0.000000
0.800000 15.244444 0.000000
0.800000 16.695556 0.000000
0.800000 18.146667 0.000000
0.800000 19.597778 0.000000
0.800000 21.048889 0.000000
0.800000 22.500000 0.000000
0.800000 23.951111 0.000000
0.800000 25.402222 0.000000
0.800000 26.853333 0.000000
0.800000 28.304444 0.000000
0.800000 29.755556 0.000000
0.800000 31.206667 0.000000
0.800000 32.657778 0.000000
0.800000 34.108889 0.000000
0.800000 35.560000 0.000000
0.800000 37.011111 0.000000
0.800000 38.462222 0.000000
0.800000 39.913333 0.000000
0.800000 41.364444 0.000000
0.800000 42.815556 0.000000
1.600000 2.902222 0.000000
1.600000 4.337778 0.000000
1.600000 5.773333 0.000000
1.600000 7.208889 0.000000
1.600000 8.644444 0.000000
1.600000 10.080000 0.000000
1.600000 11.515556 0.000000
1.600000 12.951111 0.000000
1.600000 14.386667 0.000000
1.600000 15.822222 0.000000
1.600000 17.257778 0.000000
1.600000 18.693333 0.000000
1.600000 20.128889 0.000000
1.600000 21.564444 0.000000
1.600000 23.000000 0.000000
1.600000 24.435556 0.000000
1.600000 25.871111 0.000000
1.600000 27.306667 0.000000
1.600000 28.742222 0.000000
1.600000 30.177778 0.000000
1.600000 31.613333 0.000000
1.600000 33.048889 0.000000
1.600000 34.484444 0.000000
1.600000 35.920000 0.000000
1.600000 37.355556 0.000000
1.600000 38.791111 0.000000
1.600000 40.226667 0.000000
1.600000 41.662222 0.000000
1.600000 43.097778 0.000000
2.400000 3.620000 0.000000
2.400000 5.040000 0.000000
2.400000 6.460000 0.000000
2.400000 7.880000 0.000000
2.400000 9.300000 0.000000
2.400000 10.720000 0.000000
2.400000 12.140000 0.000000
2.400000 13.560000 0.000000
2.400000 14.980000 0.000000
2.400000 16.400000 0.000000
2.400000 17.820000 0.000000
2.400000 19.240000 0.000000
2.400000 20.660000 0.000000
2.400000 22.080000 0.000000
2.400000 23.500000 0.000000
2.400000 24.920000 0.000000
2.400000 26.340000 0.000000
2.400000 27.760000 0.000000
2.400000 29.180000 0.000000
2.400000 30.600000 0.000000
2.400000 32.020000 0.000000
2.400000 33.440000 0.000000
2.400000 34.860000 0.000000
2.400000 36.280000 0.000000
2.400000 37.700000 0.000000
2.400000 39.120000 0.000000
2.400000 40.540000 0.000000
2.400000 41.960000 0.000000
2.400000 43.380000 0.000000
3.200000 4.337778 0.000000
3.200000 5.742222 0.000000
3.200000 7.146667 0.000000
3.200000 8.551111 0.000000
3.200000 9.955556 0.000000
3.200000 11.360000 0.000000
3.200000 12.764444 0.000000
3.200000 14.168889 0.000000
3.200000 15.573333 0.000000
3.200000 16.977778 0.000000
3.200000 18.382222 0.000000
3.200000 19.786667 0.000000
3.200000 21.191111 0.000000
3.200000 22.595556 0.000000
3.200000 24.000000 0.000000
3.200000 25.404444 0.000000
3.200000 26.808889 0.000000
3.200000 28.213333 0.000000
3.200000 29.617778 0.000000
3.200000 31.022222 0.000000
3.200000 32.426667 0.000000
3.200000 33.831111 0.000000
3.200000 35.235556 0.000000
3.200000 36.640000 0.000000
3.200000 38.044444 0.000000
3.200000 39.448889 0.000000
3.200000 40.853333 0.000000
3.200000 42.257778 0.000000
3.200000 43.662222 0.000000
4.000000 5.055556 0.000000
4.000000 6.444444 0.000000
4.000000 7.833333 0.000000
4.000000 9.222222 0.000000
4.000000 10.611111 0.000000
4.000000 12.000000 0.000000
4.000000 13.388889 0.000000
4.000000 14.777778 0.000000
4.000000 16.166667 0.000000
4.000000 17.555556 0.000000
4.000000 18.944444 0.000000
4.000000 20.333333 0.000000
4.000000 21.722222 0.000000
4.000000 23.111111 0.000000
4.000000 24.500000 0.000000
4.000000 25.888889 0.000000
4.000000 27.277778 0.000000
4.000000 28.666667 0.000000
4.000000 30.055556 0.000000
4.000000 31.444444 0.000000
4.000000 32.833333 0.000000
4.000000 34.222222 0.000000
4.000000 35.611111 0.000000
4.000000 37.000000 0.000000
4.000000 38.388889 0.000000
4.000000 39.777778 0.000000
4.000000 41.166667 0.000000
4.000000 42.555556 0.000000
4.000000 43.944444 0.000000
4.800000 5.773333 0.000000
4.800000 7.146667 0.000000
4.800000 8.520000 0.000000
4.800000 9.893333 0.000000
4.800000 11.266667 0.000000
4.800000 12.640000 0.000000
4.800000 14.013333 0.000000
4.800000 15.386667 0.000000
4.800000 16.760000 0.000000
4.800000 18.133333 0.000000
4.800000 19.506667 0.000000
4.800000 20.880000 0.000000
4.800000 22.253333 0.000000
4.800000 23.626667 0.000000
4.800000 25.000000 0.000000
4.800000 26.373333 0.000000
4.800000 27.746667 0.000000
4.800000 29.120000 0.000000
4.800000 30.493333 0.000000
4.800000 31.866667 0.000000
4.800000 33.240000 0.000000
4.800000 34.613333 0.000000
4.800000 35.986667 0.000000
4.800000 37.360000 0.000000
4.800000 38.733333 0.000000
4.800000 40.106667 0.000000
[...]
POINT_DATA 1891
SCALARS P float 1
LOOKUP_TABLE default
-16.430965
-341.559268
9.509282
-162.508372
-22.594638
-16.830824
-27.590202
-21.006653
-28.421483
-26.560737
-28.303094
-30.858258
-29.638661
-32.552161
-32.612598
-32.699178
-35.529315
-33.239359
-37.075596
-34.733070
-37.753182
-36.208891
-38.746705
-37.052908
-40.175065
-37.901081
-41.445531
-39.349493
-42.673005
-41.152428
-44.404180
-43.218026
-46.622875
-45.915006
-49.254589
-49.298218
-52.578864
-53.353719
-56.698638
-58.314804
-61.711417
-64.336770
-67.880740
-71.648551
-75.488659
-80.595967
-84.990195
-91.653908
-96.893557
-105.549531
-112.148386
-123.186544
-131.615377
-145.906772
-157.652111
-176.032409
-190.969414
-213.388584
-234.726177
-267.810433
-300.003271
-337.019033
-373.828134
657.578435
-810.429037
892.833510
-924.698947
958.257458
-963.370538
990.676087
-984.908848
1008.614762
-989.839915
1004.335130
-967.693292
967.479233
-909.939875
892.447007
-814.432660
780.837576
-686.361772
641.170465
-536.961425
486.757736
-380.802068
332.657542
-232.729042
192.583203
-105.116412
76.124532
-8.702154
-1.633793
-37.901164
-113.172716
-135.434200
-144.827284
-156.272041
-145.687633
-152.912972
-143.579838
-151.787815
-144.914722
-152.523261
-145.903624
-151.266025
-143.957832
-147.251582
-139.743973
-141.852837
-134.711768
-136.132260
-129.545225
-130.342284
-124.368321
-124.706542
-119.224875
-119.367606
-114.381160
-114.118958
-110.055015
-109.101676
-105.859504
-104.843182
-101.572244
-101.055994
-97.996881
-96.840529
-95.581856
-92.625952
-93.058891
-89.924524
-89.513215
-88.289886
-86.715495
-85.184273
-86.502825
-80.454090
-86.723952
-77.614144
-84.060511
-77.710471
-80.701097
-75.709561
-82.462997
-67.724953
-89.599395
-57.718333
-97.002570
-51.367582
-105.910949
-52.569739
38.302073
-110.082015
47.082177
-80.861617
46.205815
-67.181852
52.637961
-54.468969
53.667246
-46.762969
56.033508
-39.554078
55.954091
-35.055863
55.176229
-31.434822
53.124415
-29.038393
50.161022
-27.906734
45.967555
-26.577100
42.573369
-25.628725
36.764921
-25.155943
34.472940
-17.968319
33.452616
28.303120
-25.264918
36.078203
-23.861236
37.778057
-28.915443
38.049251
-30.939136
40.141465
-34.181020
40.390846
-37.547186
41.394569
-40.833654
42.341097
-43.747039
43.341698
-47.381856
44.911273
-48.601737
46.962418
-52.774936
48.609061
-50.287052
52.555631
-55.681932
53.028256
-41.977319
52.534973
37.860042
-23.461999
35.397161
-27.372467
41.083703
-26.093236
45.388511
-27.940733
49.062143
-28.185764
53.130401
-29.846722
55.711267
-32.446040
57.084444
-36.695728
57.828122
-41.934695
55.807097
-50.893459
54.279373
-58.780222
48.532883
-75.708527
45.089507
-86.715312
33.706294
-119.718291
36.832673
33.376541
-25.172744
39.459342
-27.738511
38.460564
-31.597767
40.418803
-33.445224
41.140165
-37.219609
41.778506
-40.225726
42.668151
-43.399560
44.070786
-46.514223
44.961592
-49.226638
48.332701
-51.155740
49.037109
-53.737577
55.854625
-52.598435
55.214541
-54.603005
69.166319
-47.001449
53.953268
37.564271
-28.364649
38.561365
-27.717466
44.445611
-28.317014
47.103941
-29.522370
51.318569
-30.223053
54.254000
-32.408492
56.466853
-35.765103
57.330403
-40.023045
57.652281
-47.020807
54.903683
-54.458650
53.989767
-65.851565
45.780126
-77.455455
45.054518
-94.688255
27.129125
-101.212987
41.306345
38.855773
-27.030580
40.428419
-31.735509
40.437573
-33.485225
42.415329
-36.470449
42.531696
-39.672665
43.566270
-42.762344
44.578341
-45.565602
45.970154
-48.963584
47.841525
-50.301909
50.972905
-53.930674
53.241826
-52.364313
59.718026
-56.069098
61.094047
-46.494529
69.747409
-55.779885
58.323530
38.062374
-30.378001
42.873919
-28.896205
46.455770
-30.696821
49.467927
-31.027334
53.114944
-32.691988
55.488712
-35.129046
57.046978
-39.061421
57.931526
-43.710762
56.803515
-51.591649
55.302194
-58.139384
51.317906
-71.612041
46.336944
-78.140543
38.187310
-97.671383
34.465202
-90.663911
42.771102
42.172426
-30.926397
41.270071
-34.312600
43.181633
-35.807511
43.892387
-39.272836
44.526141
-42.000835
45.448727
-45.029274
46.868637
-47.822801
48.062842
-50.515799
51.304163
-51.936899
52.938712
-54.494712
58.710477
-52.213414
60.097749
-54.286902
69.606057
-47.294691
64.665134
-60.580609
61.496360
41.126122
-30.987487
46.352459
-31.351712
48.405954
-32.449046
52.087625
-33.107209
54.653995
-35.172413
56.786745
-38.151859
57.729545
-42.092340
58.310466
-47.946231
56.147902
-54.697480
55.328755
-63.141830
48.360813
-73.120049
46.830271
-83.315212
34.549250
-92.590277
43.416197
-88.256444
46.791567
43.432354
-34.820807
43.570478
-36.085155
45.558500
-38.708102
45.704159
-41.558571
46.757284
-44.392351
47.675982
-46.995887
49.155467
-49.957595
50.842176
-51.313167
54.051418
-53.809841
55.935140
-52.847908
62.160320
-54.185338
63.299017
-50.000982
72.635227
-55.173967
62.657203
-62.591980
59.971436
45.626940
-32.370328
48.665913
-33.913256
51.177283
-34.080988
54.325744
-35.611269
56.397500
-37.715339
57.916760
-41.205318
58.687277
-45.213608
58.050393
-51.851489
56.367263
-57.383007
53.560276
-67.933927
48.364084
-73.977690
44.427883
-88.093128
38.843064
-85.851063
47.524252
-87.255373
54.132452
44.790816
-37.304755
46.829892
-38.356835
47.527482
-41.400828
48.198158
-43.770984
49.020136
-46.561495
50.271750
-48.952232
51.451848
-51.381760
54.102972
-52.311033
56.037370
-54.437052
60.393556
-52.310073
63.490982
-54.791635
69.341864
-49.849418
69.568040
-61.923787
64.614235
-67.217701
57.276764
49.497363
-35.001408
51.092019
-35.799394
54.283920
-36.302829
56.378994
-38.068299
58.269138
-40.554874
59.058651
-44.010639
59.544672
-48.752633
57.765308
-54.722420
56.785913
-61.280350
51.655586
-70.508070
49.809390
-77.468252
42.254429
-87.504403
46.751259
-83.591287
49.940724
-83.786994
59.422722
47.812743
-39.054903
49.822094
-41.251052
49.961317
-43.622578
50.921237
-46.135535
51.609069
-48.432032
52.901500
-50.885668
54.235395
-52.187226
57.065943
-53.845573
58.811061
-53.789243
64.302679
-53.994516
65.717982
-53.358729
73.250287
-55.467956
66.641621
-64.794560
65.569156
-73.963376
58.618451
52.306240
-37.684470
54.459373
-37.609324
57.047448
-38.913975
58.733476
-40.579938
59.992987
-43.510114
60.486574
-46.887427
60.018202
-52.348580
58.335657
-57.369847
56.424996
-65.728161
51.825104
-71.939824
49.970636
-81.890885
44.632166
-83.612575
52.192844
-84.377734
54.855868
-81.060553
60.355337
51.909208
-41.427193
52.521666
-43.947059
53.122583
-45.903749
53.681186
-48.356181
54.621861
-50.366341
55.595694
-52.466702
57.630801
-53.278466
59.676934
-55.063493
62.945065
-53.751552
66.686365
-55.879155
70.072032
-53.458403
72.771128
-62.273703
67.391973
-67.539312
64.185471
-78.312749
62.960595
55.342957
-39.705051
58.173411
-40.068465
59.744707
-41.465171
61.274113
-43.473214
61.797977
-46.392788
62.048456
-50.293912
60.629212
-55.530475
59.510236
-60.972672
55.935350
-69.092117
53.753133
-74.631353
49.605220
-83.621485
50.833150
-81.547961
54.940758
-84.090641
60.807101
-82.354283
60.815158
55.734550
-44.471632
55.808332
-46.293179
56.491419
-48.467213
56.861484
-50.438898
57.815184
-52.508168
58.850928
-53.817579
61.164999
-55.067729
62.874124
-55.644070
67.236979
-55.535661
69.072801
-56.666423
74.187353
-57.515366
71.018323
-66.595345
69.526064
-72.646910
63.979411
-79.585844
65.914451
59.423570
-41.816234
61.600268
-42.924643
62.881652
-44.210920
63.780179
-46.648678
64.032611
-49.555075
63.579464
-54.072913
62.055563
-58.699469
60.551770
-65.361648
56.850722
-71.477878
55.610883
-78.552973
51.638930
-82.545839
56.818012
-82.597992
58.474686
-82.750116
64.468198
-85.749352
64.063278
59.289870
-47.364530
59.842187
-48.938119
59.997950
-51.047654
60.588786
-52.825767
61.288254
-54.666916
62.818745
-55.585587
64.706079
-57.074340
67.205258
-56.653069
70.709317
-58.257158
72.858593
-57.961177
75.899210
-63.724565
71.535779
-69.643328
70.407946
-78.120032
66.946097
-81.327926
66.891454
63.899479
-44.779179
65.196083
-45.859144
66.316021
-47.547847
66.584102
-50.024278
66.604153
-53.377619
65.449360
-57.901936
64.240827
-62.657925
61.679412
-69.464118
59.441847
-74.435251
57.188048
-81.606792
56.794458
-81.797062
60.901674
-84.307469
63.875742
-83.277140
66.285724
-87.973133
68.567741
63.532328
-50.179325
64.123133
-52.090497
64.135463
-53.802039
64.677286
-55.649409
65.451570
-56.978464
67.205708
-58.122400
68.808064
-59.009117
72.061289
-59.132778
74.049930
-60.813524
77.213817
-61.775284
76.303619
-69.197317
74.199569
-74.041783
71.046001
-81.796318
71.067445
-85.472908
68.836200
68.221593
-48.307647
69.485677
-49.335999
69.955491
-51.395371
70.003237
-53.971271
69.460666
-57.784414
68.130940
-62.004591
66.746378
-67.475133
63.909906
-73.082760
62.687988
-78.508653
60.149435
-83.035720
62.984158
-83.359927
64.831615
-85.306242
69.207509
-86.460515
69.186187
-89.274409
71.925308
68.592545
-53.713243
68.801679
-55.550530
68.987462
-57.200108
69.334021
-58.837364
70.413650
-59.914853
71.947610
-61.227653
73.911260
-61.495311
76.734289
-62.831622
78.361056
-63.809626
80.672589
-67.765904
77.908843
-73.683060
77.055068
-79.854926
73.670739
-84.738122
74.261947
-90.425416
73.013871
72.971583
-52.232032
74.274035
-53.730820
74.241767
-55.823490
73.982859
-58.777457
72.939183
-62.662225
71.692431
-66.925653
69.682927
-72.544044
67.667758
-77.148356
66.205156
-82.695094
65.456587
-84.442891
68.548335
-86.410919
70.255260
-86.940235
73.390397
-90.416625
74.122159
-91.978953
74.797515
73.995886
-58.080034
74.415647
-59.647540
74.462292
-61.324967
74.906573
-62.632398
76.080556
-63.779857
77.419474
-64.786419
79.768590
-65.333021
81.549892
-67.065351
83.505677
-68.585364
83.480749
-74.204362
81.483466
-78.842748
79.785747
-85.533761
78.327700
-89.121441
77.320057
-94.664939
77.893284
78.599297
-57.150947
79.616506
-58.946650
79.396552
-61.233340
78.651381
-64.464878
77.392666
-68.221569
75.986152
-72.842214
73.766124
-77.721323
72.488153
-82.244256
70.893166
-86.369836
72.233867
-87.473735
74.044835
-89.715312
76.700049
-90.609067
77.726657
-93.979993
79.666153
-96.619419
79.127348
80.015419
-63.130193
80.945609
-64.793623
80.890491
-66.252039
81.479068
-67.402634
82.525957
-68.598729
83.991087
-69.267035
86.010215
-70.567424
87.292522
-72.114244
88.718963
-75.313302
87.162435
-80.507012
86.104418
-85.451062
83.706209
-90.818414
83.554615
-95.194647
81.975584
-99.071008
82.481030
84.874757
-63.331887
86.011505
-65.223627
85.427803
-67.808489
84.330541
-71.114062
82.993697
-74.881545
81.189715
-79.496141
79.417232
-83.634864
78.181800
-88.013908
77.526612
-90.370637
79.410147
-92.155683
80.708596
-93.602367
83.197952
-95.901084
83.661457
-98.107808
85.028793
-101.914245
85.066889
87.127905
-69.340197
88.456352
-71.029279
88.529261
-72.304333
89.140437
-73.435150
90.057880
-74.436330
91.622807
-75.292214
92.920677
-76.931713
94.094112
-78.839413
94.119489
-83.164748
92.576091
-87.543148
91.301729
-92.916442
89.533106
-96.941103
88.955373
-101.849108
88.323346
-105.045635
87.778028
91.998317
-70.733455
93.598636
-72.947936
92.637993
-75.688646
91.314564
-78.949994
89.797624
-82.856538
87.881399
-86.934970
86.522455
-90.773284
85.330549
-94.216164
85.846593
-95.855883
87.150495
-97.869543
88.752257
-99.093304
90.067369
-101.870003
91.072465
-103.945761
91.180969
-107.416324
91.603177
95.289066
-77.053337
97.402305
-78.632878
97.524256
-79.791089
98.065483
-80.899941
99.010650
-81.746049
100.239506
-83.030024
101.073209
-84.707520
101.713641
-87.531304
100.675646
-91.789489
99.499210
-96.064447
97.726046
-100.894433
96.796383
-104.748489
95.521766
-108.901820
95.480779
-112.508953
94.755199
100.430104
-79.789085
102.581206
-82.302817
101.356461
-85.103137
99.886204
-88.365197
98.105273
-92.124514
96.432173
-95.667451
95.160391
-99.138096
94.503189
-101.439700
95.372874
-103.153115
96.258136
-104.725965
97.797857
-106.443089
98.342819
-108.671137
99.329946
-111.360034
99.085060
-114.067742
98.752889
104.735700
-86.410668
108.043495
-88.011963
108.172623
-89.089312
108.614462
-90.039699
109.481428
-91.038320
110.197497
-92.538119
110.711194
-94.507959
110.406711
-97.916197
109.100394
-101.716466
107.765927
-106.064533
106.063280
-110.008299
105.142940
-114.041250
103.977851
-117.291125
103.498891
-120.852861
103.135377
110.298038
-90.893064
113.457052
-93.655587
111.995253
-96.395004
110.300601
-99.632812
108.469298
-102.959472
106.985594
-106.121484
105.823344
-108.835517
105.737532
-110.519403
106.302103
-112.159312
107.142099
-113.407428
108.022904
-115.354729
108.476712
-117.146832
108.700879
-119.884835
108.604483
-122.508139
107.394037
115.920100
-97.931171
120.774513
-99.600297
120.830151
-100.553745
121.201800
-101.419486
121.709637
-102.614751
121.997782
-104.201264
121.948941
-106.646387
120.911206
-109.996199
119.563383
-113.582606
117.848466
-117.538909
116.405534
-121.016415
115.053520
-124.648276
114.192508
-127.618342
113.236860
-130.391434
112.607454
121.982747
-104.425591
126.719903
-107.457358
125.053681
-110.107512
123.115829
-113.046178
121.333878
-115.897517
119.878257
-118.558983
119.005094
-120.465623
119.018806
-121.906630
119.261700
-123.130681
119.892750
-124.351172
120.141268
-125.946499
120.414475
-127.707637
119.988571
-129.862372
119.519121
-132.523647
117.806980
129.157204
-112.184113
136.191077
-114.045949
136.128188
-114.762207
136.211811
-115.621062
136.240173
-116.865752
136.071517
-118.618100
135.284229
-121.244049
133.871278
-124.269092
132.243028
-127.695267
130.363666
-131.012323
128.804881
-134.212907
127.202004
-137.071542
126.115358
-139.796040
125.100489
-141.850807
123.643174
136.037327
-121.077698
143.140936
-124.418398
141.177901
-126.787400
139.056034
-129.227340
137.219813
-131.554790
135.755460
-133.465443
135.011512
-134.779566
134.749534
-135.891592
134.793770
-136.693068
134.886731
-137.720817
134.716513
-138.798747
134.375169
-140.352017
133.586519
-141.982406
132.328832
-144.128836
129.798477
145.012629
-129.951756
155.078077
-132.112575
154.805946
-132.599406
154.378201
-133.344866
153.826611
-134.481049
152.953960
-136.295809
151.521829
-138.716964
149.800656
-141.443412
147.716393
-144.392706
145.663902
-147.131011
143.692544
-149.790554
141.922485
-151.969266
140.286530
-153.945570
139.046401
-155.422768
136.662789
153.098585
-141.700960
163.677446
-145.524759
161.440941
-147.339854
159.011304
-149.072980
156.901383
-150.634235
155.356115
-151.758146
154.399671
-152.548858
153.715526
-153.013140
153.331368
-153.388066
152.795228
-153.881252
152.109419
-154.463724
150.979360
-155.347745
149.585507
-156.503945
147.586906
-157.828810
143.528152
164.206962
-152.317040
178.647291
-155.054255
177.934257
-155.135362
176.720002
-155.517687
175.393166
-156.457383
173.702415
-157.998603
171.633122
-159.872413
169.277665
-162.137107
166.706445
-164.368867
164.195096
-166.441987
161.696913
-168.220622
159.449707
-169.669320
157.274891
-170.627973
155.352177
-171.127823
151.597381
174.115417
-167.642938
189.783588
-172.089646
187.162320
-173.032102
184.193481
-173.856768
181.672840
-174.406998
179.678940
-174.594506
178.048191
-174.549314
176.821274
-174.175939
175.654757
-173.806774
174.341372
-173.469773
172.794584
-173.324368
170.800850
-173.272957
168.355485
-173.540613
165.430584
-173.884445
159.228637
187.818411
-180.779555
208.448622
-184.516332
207.124306
-183.989906
204.887231
-183.739787
202.402654
-184.016048
199.616667
-184.745449
196.671454
-185.888854
193.344673
-187.237102
190.005452
-188.505819
186.698624
-189.565658
183.451549
-190.175482
180.274802
-190.414963
177.287212
-190.190332
174.442325
-189.275193
168.466117
200.235042
-200.598548
223.508953
-206.256812
220.517027
-206.023710
216.577136
-205.359574
213.066911
-204.463267
210.054083
-203.441955
207.429134
-202.000264
205.193227
-200.482009
202.927328
-198.909846
200.414594
-197.287141
197.464186
-195.777206
194.139383
-194.472417
190.347553
-193.452256
186.097432
-192.436310
176.925835
217.211635
-217.615344
247.104006
-223.224255
244.964882
-221.495094
240.953091
-219.903271
236.771669
-218.893804
232.572587
-218.278839
228.086460
-218.253959
223.493580
-218.176818
218.782317
-217.809879
213.999013
-217.093018
209.370387
-216.081612
204.937946
-214.732068
200.753217
-213.003543
196.703336
-210.223337
187.297054
233.375100
-243.420335
268.015691
-251.074884
264.239705
-248.867523
258.594457
-246.113894
253.474025
-243.338489
248.734580
-240.338499
244.717323
-236.933652
240.579289
-233.230407
236.200842
-229.454106
231.642104
-225.908944
226.884875
-222.643975
221.818349
-219.654905
216.255874
-216.819077
209.957792
-213.467382
196.045012
254.477070
-265.846873
297.832094
-274.352965
294.595375
-270.872403
288.251108
-267.273463
281.782653
-263.987562
275.286009
-261.391422
268.138895
-258.626017
260.845733
-255.817307
253.776554
-253.081251
247.134965
-250.279903
240.804916
-247.190286
234.582850
-243.550146
228.285527
-239.230689
221.818836
-233.224635
206.762844
275.524874
-299.187578
327.040182
-310.810719
322.904669
-306.358046
314.847573
-300.561796
306.684324
-294.601562
298.992516
-287.488363
291.357362
-280.415224
284.126060
-273.764858
277.267234
-267.547000
270.362895
-261.499713
262.979699
-255.369853
254.802061
-249.090535
245.764098
-242.757855
235.724139
-235.260076
214.368370
301.858729
-329.676888
366.212369
-344.221443
362.381702
-338.048973
352.020440
-330.137042
341.226054
-322.306350
329.272242
-315.197277
318.226114
-309.033318
308.104884
-303.408061
298.502078
-297.608157
288.891863
-291.110576
278.934817
-283.721326
268.613881
-275.542691
258.088986
-266.722463
247.382515
-255.684708
224.061851
330.594033
-374.570285
408.485622
-393.350979
403.376216
-384.205587
389.727003
-372.571575
375.434725
-359.803388
363.158595
-348.573010
352.237701
-338.031275
341.678482
-327.385912
330.492450
-316.128278
318.187124
-304.201962
304.772482
-291.937107
290.538184
-279.785224
275.808617
-268.152585
260.492698
-255.092207
229.497875
364.873257
-416.793950
459.986542
-439.495543
453.570022
-427.283262
436.246961
-411.654393
418.137098
-399.532799
402.371319
-388.446991
386.980455
-377.006625
371.001155
-364.353698
354.161006
-350.449914
336.759531
-335.778464
319.358697
-320.943903
302.483263
-306.447987
286.523595
-292.517054
271.238438
-276.171110
238.447134
402.670093
-474.632765
517.310594
-503.626271
510.957293
-488.855921
489.726799
-470.546479
472.484718
-453.398256
454.739819
-434.780081
435.476060
-414.213154
414.349610
-392.163185
391.895132
-369.645638
369.032760
-347.743379
346.594463
-327.301385
325.142354
-308.868479
304.901055
-292.604328
285.108906
-274.606954
243.812956
444.389083
-530.160383
585.106265
-569.793593
580.770188
-552.709003
558.696905
-534.336345
533.327077
-511.222400
504.355201
-485.044202
473.110833
-456.957925
441.237523
-428.619465
410.456639
-401.622758
382.090205
-377.067302
356.862349
-355.458391
334.910139
-336.742213
315.892249
-320.283481
298.265683
-300.152385
255.348694
494.057031
-608.951976
670.972157
-664.690606
670.824979
-650.113375
646.520195
-617.473057
609.192506
-577.305601
568.223261
-534.926478
526.888790
-493.472522
487.509073
-455.164713
451.566842
-421.193613
419.592655
-391.823425
391.357546
-366.697924
366.178406
-345.196505
343.156748
-326.429059
319.974788
-303.115841
264.862759
553.832914
-696.284616
775.642877
-771.850461
783.987750
-749.769603
734.805174
-695.163025
672.833548
-636.699060
611.574141
-581.152741
555.472119
-531.414568
506.479620
-488.673470
465.054804
-452.935156
430.684822
-423.484212
402.337726
-399.269378
378.772737
-379.086153
358.552748
-361.118354
338.094209
-334.675250
278.403704
631.007890
-813.996345
908.367000
-917.032486
907.610611
-858.883032
827.788261
-773.627406
744.992878
-693.528068
672.041727
-624.882620
611.277456
-568.685402
562.203487
-523.881501
522.987136
-488.361453
491.079795
-459.473919
463.571790
-434.369303
437.442687
-410.272021
409.665832
-384.209566
374.836035
-343.269937
288.026760
711.489040
-935.429603
1049.839451
-1034.771523
1003.610632
-939.156643
891.807913
-833.453672
790.712878
-745.374684
709.804908
-676.645878
647.376872
-623.906683
599.068911
-582.415793