# vtk DataFile Version 2.0
patchtest_tri3_mix
ASCII
DATASET POLYDATA
POINTS 1326 float
0.000000 0.000000 0.000000
48.000000 44.000000 0.000000
48.000000 60.000000 0.000000
0.000000 44.000000 0.000000
0.960000 0.880000 0.000000
1.920000 1.760000 0.000000
2.880000 2.640000 0.000000
3.840000 3.520000 0.000000
4.800000 4.400000 0.000000
5.760000 5.280000 0.000000
6.720000 6.160000 0.000000
7.680000 7.040000 0.000000
8.640000 7.920000 0.000000
9.600000 8.800000 0.000000
10.560000 9.680000 0.000000
11.520000 10.560000 0.000000
12.480000 11.440000 0.000000
13.440000 12.320000 0.000000
14.400000 13.200000 0.000000
15.360000 14.080000 0.000000
16.320000 14.960000 0.000000
17.280000 15.840000 0.000000
18.240000 16.720000 0.000000
19.200000 17.600000 0.000000
20.160000 18.480000 0.000000
21.120000 19.360000 0.000000
22.080000 20.240000 0.000000
23.040000 21.120000 0.000000
24.000000 22.000000 0.000000
24.960000 22.880000 0.000000
25.920000 23.760000 0.000000
26.880000 24.640000 0.000000
27.840000 25.520000 0.000000
28.800000 26.400000 0.000000
29.760000 27.280000 0.000000
30.720000 28.160000 0.000000
31.680000 29.040000 0.000000
32.640000 29.920000 0.000000
33.600000 30.800000 0.000000
34.560000 31.680000 0.000000
35.520000 32.560000 0.000000
36.480000 33.440000 0.000000
37.440000 34.320000 0.000000
38.400000 35.200000 0.000000
39.360000 36.080000 0.000000
40.320000 36.960000 0.000000
41.280000 37.840000 0.000000
42.240000 38.720000 0.000000
43.200000 39.600000 0.000000
44.160000 40.480000 0.000000
45.120000 41.360000 0.000000
46.080000 42.240000 0.000000
47.040000 43.120000 0.000000
48.000000 44.640000 0.000000
48.000000 45.280000 0.000000
48.000000 45.920000 0.000000
48.000000 46.560000 0.000000
48.000000 47.200000 0.000000
48.000000 47.840000 0.000000
48.000000 48.480000 0.000000
48.000000 49.120000 0.000000
48.000000 49.760000 0.000000
48.000000 50.400000 0.000000
48.000000 51.040000 0.000000
48.000000 51.680000 0.000000
48.000000 52.320000 0.000000
48.000000 52.960000 0.000000
48.000000 53.600000 0.000000
48.000000 54.240000 0.000000
48.000000 54.880000 0.000000
48.000000 55.520000 0.000000
48.000000 56.160000 0.000000
48.000000 56.800000 0.000000
48.000000 57.440000 0.000000
48.000000 58.080000 0.000000
48.000000 58.720000 0.000000
48.000000 59.360000 0.000000
47.040000 59.680000 0.000000
46.080000 59.360000 0.000000
45.120000 59.040000 0.000000
44.160000 58.720000 0.000000
43.200000 58.400000 0.000000
42.240000 58.080000 0.000000
41.280000 57.760000 0.000000
40.320000 57.440000 0.000000
39.360000 57.120000 0.000000
38.400000 56.800000 0.000000
37.440000 56.480000 0.000000
36.480000 56.160000 0.000000
35.520000 55.840000 0.000000
34.560000 55.520000 0.000000
33.600000 55.200000 0.000000
32.640000 54.880000 0.000000
31.680000 54.560000 0.000000
30.720000 54.240000 0.000000
29.760000 53.920000 0.000000
28.800000 53.600000 0.000000
27.840000 53.280000 0.000000
26.880000 52.960000 0.000000
25.920000 52.640000 0.000000
24.960000 52.320000 0.000000
24.000000 52.000000 0.000000
23.040000 51.680000 0.000000
22.080000 51.360000 0.000000
21.120000 51.040000 0.000000
20.160000 50.720000 0.000000
19.200000 50.400000 0.000000
18.240000 50.080000 0.000000
17.280000 49.760000 0.000000
16.320000 49.440000 0.000000
15.360000 49.120000 0.000000
14.400000 48.800000 0.000000
13.440000 48.480000 0.000000
12.480000 48.160000 0.000000
11.520000 47.840000 0.000000
10.560000 47.520000 0.000000
9.600000 47.200000 0.000000
8.640000 46.880000 0.000000
7.680000 46.560000 0.000000
6.720000 46.240000 0.000000
5.760000 45.920000 0.000000
4.800000 45.600000 0.000000
3.840000 45.280000 0.000000
2.880000 44.960000 0.000000
1.920000 44.640000 0.000000
0.960000 44.320000 0.000000
0.000000 42.240000 0.000000
0.000000 40.480000 0.000000
0.000000 38.720000 0.000000
0.000000 36.960000 0.000000
0.000000 35.200000 0.000000
0.000000 33.440000 0.000000
0.000000 31.680000 0.000000
0.000000 29.920000 0.000000
0.000000 28.160000 0.000000
0.000000 26.400000 0.000000
0.000000 24.640000 0.000000
0.000000 22.880000 0.000000
0.000000 21.120000 0.000000
0.000000 19.360000 0.000000
0.000000 17.600000 0.000000
0.000000 15.840000 0.000000
0.000000 14.080000 0.000000
0.000000 12.320000 0.000000
0.000000 10.560000 0.000000
0.000000 8.800000 0.000000
0.000000 7.040000 0.000000
0.000000 5.280000 0.000000
0.000000 3.520000 0.000000
0.000000 1.760000 0.000000
0.960000 2.617600 0.000000
0.960000 4.355200 0.000000
0.960000 6.092800 0.000000
0.960000 7.830400 0.000000
0.960000 9.568000 0.000000
0.960000 11.305600 0.000000
0.960000 13.043200 0.000000
0.960000 14.780800 0.000000
0.960000 16.518400 0.000000
0.960000 18.256000 0.000000
0.960000 19.993600 0.000000
0.960000 21.731200 0.000000
0.960000 23.468800 0.000000
0.960000 25.206400 0.000000
0.960000 26.944000 0.000000
0.960000 28.681600 0.000000
0.960000 30.419200 0.000000
0.960000 32.156800 0.000000
0.960000 33.894400 0.000000
0.960000 35.632000 0.000000
0.960000 37.369600 0.000000
0.960000 39.107200 0.000000
0.960000 40.844800 0.000000
0.960000 42.582400 0.000000
1.920000 3.475200 0.000000
1.920000 5.190400 0.000000
1.920000 6.905600 0.000000
1.920000 8.620800 0.000000
1.920000 10.336000 0.000000
1.920000 12.051200 0.000000
1.920000 13.766400 0.000000
1.920000 15.481600 0.000000
1.920000 17.196800 0.000000
1.920000 18.912000 0.000000
1.920000 20.627200 0.000000
1.920000 22.342400 0.000000
1.920000 24.057600 0.000000
1.920000 25.772800 0.000000
1.920000 27.488000 0.000000
1.920000 29.203200 0.000000
1.920000 30.918400 0.000000
1.920000 32.633600 0.000000
1.920000 34.348800 0.000000
1.920000 36.064000 0.000000
1.920000 37.779200 0.000000
1.920000 39.494400 0.000000
1.920000 41.209600 0.000000
1.920000 42.924800 0.000000
2.880000 4.332800 0.000000
2.880000 6.025600 0.000000
2.880000 7.718400 0.000000
2.880000 9.411200 0.000000
2.880000 11.104000 0.000000
2.880000 12.796800 0.000000
2.880000 14.489600 0.000000
2.880000 16.182400 0.000000
2.880000 17.875200 0.000000
2.880000 19.568000 0.000000
2.880000 21.260800 0.000000
2.880000 22.953600 0.000000
2.880000 24.646400 0.000000
2.880000 26.339200 0.000000
2.880000 28.032000 0.000000
2.880000 29.724800 0.000000
2.880000 31.417600 0.000000
2.880000 33.110400 0.000000
2.880000 34.803200 0.000000
2.880000 36.496000 0.000000
2.880000 38.188800 0.000000
2.880000 39.881600 0.000000
2.880000 41.574400 0.000000
2.880000 43.267200 0.000000
3.840000 5.190400 0.000000
3.840000 6.860800 0.000000
3.840000 8.531200 0.000000
3.840000 10.201600 0.000000
3.840000 11.872000 0.000000
3.840000 13.542400 0.000000
3.840000 15.212800 0.000000
3.840000 16.883200 0.000000
3.840000 18.553600 0.000000
3.840000 20.224000 0.000000
3.840000 21.894400 0.000000
3.840000 23.564800 0.000000
3.840000 25.235200 0.000000
3.840000 26.905600 0.000000
3.840000 28.576000 0.000000
3.840000 30.246400 0.000000
3.840000 31.916800 0.000000
3.840000 33.587200 0.000000
3.840000 35.257600 0.000000
3.840000 36.928000 0.000000
3.840000 38.598400 0.000000
3.840000 40.268800 0.000000
3.840000 41.939200 0.000000
3.840000 43.609600 0.000000
4.800000 6.048000 0.000000
4.800000 7.696000 0.000000
4.800000 9.344000 0.000000
4.800000 10.992000 0.000000
4.800000 12.640000 0.000000
4.800000 14.288000 0.000000
4.800000 15.936000 0.000000
4.800000 17.584000 0.000000
4.800000 19.232000 0.000000
4.800000 20.880000 0.000000
4.800000 22.528000 0.000000
4.800000 24.176000 0.000000
4.800000 25.824000 0.000000
4.800000 27.472000 0.000000
4.800000 29.120000 0.000000
4.800000 30.768000 0.000000
4.800000 32.416000 0.000000
4.800000 34.064000 0.000000
4.800000 35.712000 0.000000
4.800000 37.360000 0.000000
4.800000 39.008000 0.000000
4.800000 40.656000 0.000000
4.800000 42.304000 0.000000
4.800000 43.952000 0.000000
5.760000 6.905600 0.000000
5.760000 8.531200 0.000000
5.760000 10.156800 0.000000
5.760000 11.782400 0.000000
5.760000 13.408000 0.000000
5.760000 15.033600 0.000000
5.760000 16.659200 0.000000
5.760000 18.284800 0.000000
5.760000 19.910400 0.000000
5.760000 21.536000 0.000000
5.760000 23.161600 0.000000
5.760000 24.787200 0.000000
5.760000 26.412800 0.000000
5.760000 28.038400 0.000000
5.760000 29.664000 0.000000
5.760000 31.289600 0.000000
5.760000 32.915200 0.000000
5.760000 34.540800 0.000000
5.760000 36.166400 0.000000
5.760000 37.792000 0.000000
5.760000 39.417600 0.000000
5.760000 41.043200 0.000000
5.760000 42.668800 0.000000
5.760000 44.294400 0.000000
6.720000 7.763200 0.000000
6.720000 9.366400 0.000000
6.720000 10.969600 0.000000
6.720000 12.572800 0.000000
6.720000 14.176000 0.000000
6.720000 15.779200 0.000000
6.720000 17.382400 0.000000
6.720000 18.985600 0.000000
6.720000 20.588800 0.000000
6.720000 22.192000 0.000000
6.720000 23.795200 0.000000
6.720000 25.398400 0.000000
6.720000 27.001600 0.000000
6.720000 28.604800 0.000000
6.720000 30.208000 0.000000
6.720000 31.811200 0.000000
6.720000 33.414400 0.000000
6.720000 35.017600 0.000000
6.720000 36.620800 0.000000
6.720000 38.224000 0.000000
6.720000 39.827200 0.000000
6.720000 41.430400 0.000000
6.720000 43.033600 0.000000
6.720000 44.636800 0.000000
7.680000 8.620800 0.000000
7.680000 10.201600 0.000000
7.680000 11.782400 0.000000
7.680000 13.363200 0.000000
7.680000 14.944000 0.000000
7.680000 16.524800 0.000000
7.680000 18.105600 0.000000
7.680000 19.686400 0.000000
7.680000 21.267200 0.000000
7.680000 22.848000 0.000000
7.680000 24.428800 0.000000
7.680000 26.009600 0.000000
7.680000 27.590400 0.000000
7.680000 29.171200 0.000000
7.680000 30.752000 0.000000
7.680000 32.332800 0.000000
7.680000 33.913600 0.000000
7.680000 35.494400 0.000000
7.680000 37.075200 0.000000
7.680000 38.656000 0.000000
7.680000 40.236800 0.000000
7.680000 41.817600 0.000000
7.680000 43.398400 0.000000
7.680000 44.979200 0.000000
8.640000 9.478400 0.000000
8.640000 11.036800 0.000000
8.640000 12.595200 0.000000
8.640000 14.153600 0.000000
8.640000 15.712000 0.000000
8.640000 17.270400 0.000000
8.640000 18.828800 0.000000
8.640000 20.387200 0.000000
8.640000 21.945600 0.000000
[...]
POINT_DATA 1326
SCALARS P float 1
LOOKUP_TABLE default
36.535763
304.335609
15.405781
-153.070649
26.754189
40.689240
29.876728
39.172001
35.657825
37.498653
40.008792
38.922931
41.831727
43.320582
42.943749
48.140039
45.679654
51.748516
50.092137
54.966771
54.476987
59.024663
58.237321
63.483661
62.345866
67.522538
67.084075
71.628138
71.873801
76.278652
76.984464
81.222372
82.872133
86.761863
89.516187
93.370151
97.280704
101.339243
106.700063
111.232122
118.331921
123.938426
133.106889
140.344895
152.179100
162.559951
177.809848
191.212122
210.379131
230.322798
257.348928
280.703382
315.228461
-577.748344
726.288658
-795.964111
845.810310
-858.981493
888.223798
-879.691807
898.992501
-871.257202
876.803471
-826.824288
814.291518
-741.023104
709.742340
-616.367653
570.212298
-464.129009
410.649835
-301.985858
250.051317
-149.117480
105.386249
-22.913782
-1.823498
-52.688408
-118.161797
-132.446949
-133.282230
-139.774297
-128.988196
-136.114993
-128.200045
-135.824838
-129.235808
-135.237142
-128.522963
-132.537191
-125.896913
-128.663940
-122.474631
-124.396093
-118.738804
-119.726996
-114.788439
-115.069244
-110.575594
-110.667280
-106.434921
-106.072010
-102.990036
-101.264043
-99.712935
-97.367066
-95.722062
-94.523462
-92.101227
-90.895550
-90.588739
-85.936097
-89.846198
-82.326767
-86.912353
-81.379321
-83.106246
-79.056450
-83.544290
-71.476331
-89.064947
-61.674738
-95.209499
-54.955577
-102.575570
-55.172841
40.019555
-102.505085
49.281378
-73.808998
49.151766
-59.648965
54.692229
-47.276382
55.116716
-39.675211
55.840685
-33.530777
54.088296
-29.709976
51.290008
-27.921691
46.879675
-26.109550
43.230897
-26.090491
36.503876
-25.190420
36.680564
-16.263386
-27.911961
34.069385
-23.096679
37.540728
-28.289358
36.525681
-30.944121
39.186848
-34.504896
39.535915
-38.618370
41.057164
-42.910620
42.518670
-45.842490
44.710303
-50.773429
46.612726
-50.226937
50.624677
-56.117707
51.649945
-44.785753
51.852034
-21.208442
35.946901
-28.147676
40.770514
-25.697415
46.458577
-27.775826
50.047494
-28.534543
54.414393
-31.463916
56.762784
-35.719226
57.058659
-43.563907
56.629398
-51.553617
52.161801
-67.855084
48.828158
-79.975140
37.821077
-112.407670
39.548709
-26.285251
38.827125
-26.437820
37.537061
-31.687679
39.190876
-33.530360
40.444033
-38.163954
41.488436
-41.847749
42.833298
-45.875682
45.737563
-49.074397
47.043406
-52.720429
53.423005
-53.107920
53.751165
-55.883146
67.108407
-49.959781
54.309019
-27.751019
37.674756
-28.083900
44.926265
-27.819546
47.954154
-29.932680
52.547928
-31.355387
55.473285
-35.026175
57.571613
-40.760143
56.839160
-47.936402
56.712435
-58.992919
50.000832
-70.982944
48.894847
-88.626301
32.175199
-96.939038
44.128795
-26.297495
40.183565
-31.205870
39.161790
-33.726961
41.890491
-37.044212
42.256764
-41.057364
44.007172
-45.058729
45.720500
-48.011698
48.758566
-52.386864
51.371571
-52.518605
57.624403
-56.813162
59.904257
-49.243216
68.544596
-58.396481
59.108863
-30.947704
42.299337
-28.600403
47.392731
-30.890679
50.457491
-31.947016
54.619889
-34.863127
56.937304
-38.794331
57.902571
-45.681425
57.690845
-52.390235
54.908487
-65.297485
50.710526
-73.064778
43.028877
-92.486423
39.148230
-88.532164
46.205832
-29.788098
40.666558
-34.637400
42.572965
-36.192081
44.002474
-40.536158
45.107759
-43.886819
46.645634
-47.738980
49.415606
-50.446008
51.417748
-53.860998
56.895306
-53.225441
58.967917
-55.808723
68.322485
-50.602173
64.962453
-63.360318
62.566021
-31.531105
47.005778
-31.263156
49.561941
-33.438781
53.739199
-34.841254
56.446120
-38.329887
58.597904
-43.175114
58.313086
-49.561863
58.342994
-57.888976
52.928956
-67.933321
51.380838
-78.899596
40.328017
-89.111072
47.626677
-87.217872
50.713783
-34.704182
43.171684
-36.778881
46.138990
-39.753383
46.609719
-43.395965
48.402763
-46.958343
49.911042
-49.720087
52.847925
-53.037873
55.034189
-53.462596
60.831661
-55.615995
62.899384
-52.813817
71.900336
-58.206874
64.081040
-66.047647
61.894429
-32.616788
50.386903
-34.887801
53.035734
-35.815440
56.753547
-38.496065
58.756862
-41.849014
59.861840
-47.591596
59.476775
-53.154385
57.638718
-63.180681
53.537811
-70.117585
49.799754
-84.164442
44.708808
-84.297784
52.016535
-87.034386
57.971048
-38.371286
47.790864
-39.479103
49.259209
-43.377939
50.357035
-46.240727
51.712141
-49.677583
53.906785
-51.807975
55.866111
-54.635735
59.990338
-54.066502
63.262150
-56.860242
69.221962
-53.602784
70.303975
-64.899240
66.563099
-71.068770
60.516725
-35.938081
53.758599
-37.967881
57.444910
-39.132465
59.601604
-42.112437
61.405047
-45.972701
61.138975
-51.378687
60.947351
-57.861188
57.093624
-66.752161
55.440825
-74.536260
48.822288
-84.813092
52.287154
-83.322857
55.135535
-84.875465
63.226432
-40.763272
52.646088
-43.393989
53.015170
-46.452056
54.555570
-49.500038
55.603247
-51.908776
57.972932
-54.429440
59.809835
-55.376317
64.666980
-56.555800
66.732127
-56.699818
73.721105
-59.412052
68.975019
-68.502346
68.249481
-77.794833
62.790705
-40.285068
58.659021
-40.972083
61.630474
-43.242702
63.082246
-45.879160
63.884233
-50.499900
63.325422
-55.279426
62.025446
-63.123875
58.523534
-69.691380
56.563481
-79.645679
51.999634
-82.872151
58.011449
-84.948606
60.454443
-83.675059
64.951997
-43.861063
57.104007
-47.419797
57.981506
-49.767620
58.853797
-52.721733
60.416399
-54.573418
62.094040
-56.936304
65.104547
-56.937562
68.466474
-59.322693
72.067542
-58.256187
74.792217
-66.374883
70.826925
-72.242565
68.291651
-82.536879
67.525631
-44.090356
64.523655
-45.110785
65.851308
-47.444562
67.100249
-50.536318
66.703648
-55.007149
66.213494
-60.298343
63.450439
-67.752912
61.568961
-73.925639
57.812960
-82.626119
58.554316
-82.656338
61.874271
-85.927408
66.685392
-86.024187
66.703343
-48.409150
62.428093
-51.187868
63.452740
-53.844642
64.003086
-55.954203
65.666053
-58.071863
67.172179
-59.301926
70.752221
-60.216135
72.749706
-61.632505
77.269769
-63.382147
75.205218
-71.674626
74.012674
-78.083416
69.692566
-85.092985
71.203348
-48.029485
70.255706
-50.226422
71.037565
-52.224020
71.289126
-55.928641
70.582474
-60.039080
69.317460
-66.185456
66.464745
-72.109135
64.910363
-79.258003
61.587838
-83.733961
65.262543
-85.156608
66.721455
-86.506130
71.316052
-90.208258
70.999953
-53.357355
69.197775
-55.820011
69.368917
-58.308834
70.285716
-60.054644
71.419385
-62.011094
73.526992
-62.585403
76.225681
-64.502172
78.479074
-65.047939
80.872342
-70.516631
77.783330
-76.463492
76.650378
-84.442444
73.957372
-88.499083
73.778859
-53.475156
76.485600
-55.830335
77.020294
-58.319146
76.278188
-61.861781
75.384186
-66.286951
73.137958
-72.244193
71.151220
-77.457773
68.742613
-84.102030
68.266227
-85.633392
71.051313
-88.540931
73.342497
-89.053943
75.011194
-93.798671
76.474461
-58.566125
76.678623
-61.739648
76.617835
-63.481451
77.369063
-65.307299
78.374026
-66.551502
80.676535
-67.546747
82.284656
-69.251247
84.865088
-71.097112
84.095472
-77.579312
82.379463
-82.769339
79.746678
-89.871538
79.475106
-94.170049
77.728475
-60.160281
84.141772
-62.710478
83.667395
-65.549033
82.620424
-68.936618
81.024557
-73.717252
78.554961
-78.688330
76.877846
-84.068238
74.545573
-88.276311
76.186741
-89.771336
77.412031
-92.040444
80.333177
-94.078812
80.139605
-97.288145
81.483513
-65.213663
85.113641
-68.602591
85.295036
-70.164397
85.616545
-71.653447
86.779958
-72.477703
88.431316
-74.047668
89.754865
-75.353011
91.043266
-79.339193
88.931612
-84.699538
87.711461
-90.575202
84.987175
-95.428793
84.853226
-100.805739
83.797930
-67.736369
92.903803
-71.435502
91.771380
-74.066791
90.282612
-77.617428
88.027970
-82.141961
85.886801
-86.414244
83.809667
-91.242019
82.921384
-93.357273
84.445089
-95.562008
85.496402
-96.831175
87.165456
-100.170790
87.306587
-102.485558
86.886238
-73.477431
95.435069
-77.067031
95.323522
-78.499934
95.560325
-79.507859
96.585363
-80.456197
97.374645
-81.950432
98.465626
-83.930613
97.737058
-88.684565
95.881646
-93.202139
93.897716
-98.930934
92.323733
-102.765166
90.953529
-107.531547
90.793119
-77.110070
103.019209
-81.866318
101.688114
-84.505277
99.584474
-88.056893
97.075591
-91.855153
95.013637
-95.834443
92.987346
-99.030483
93.199722
-100.560053
93.783678
-102.484313
95.013212
-103.902531
95.052163
-106.762742
95.517756
-109.622561
94.112551
-83.175553
107.641491
-87.831131
107.375752
-88.816466
107.469358
-89.515413
107.905282
-90.670361
108.207085
-91.996703
108.182077
-95.005526
106.302010
-99.196016
104.528421
-103.611949
102.041506
-108.045339
100.895439
-112.037008
99.112309
-115.346163
98.391017
-88.619636
115.450018
-94.638017
113.708349
-97.251278
111.112843
-100.439636
108.626545
-103.604851
106.309508
-106.816665
104.963352
-108.547552
105.055743
-109.981706
105.118963
-111.137889
105.661045
-113.021671
105.107627
-114.860340
104.623906
-117.894565
103.074180
-95.146875
122.171762
-101.204078
121.982111
-101.780541
121.691553
-102.377466
121.375953
-103.370027
121.076876
-105.034960
119.622850
-108.261750
117.368721
-111.736986
115.048043
-115.789063
112.698434
-119.066295
110.855127
-122.693744
109.351975
-125.246243
107.588787
-102.362493
130.633804
-110.525875
128.635300
-112.854467
125.667098
-115.330821
122.993653
-117.900407
120.665429
-119.781498
119.633706
-120.726467
119.075925
-121.697036
118.772039
-122.393493
118.116551
-123.876354
117.327319
-125.300677
115.643775
-127.458082
113.280879
-109.955473
140.058436
-118.129829
139.858920
-118.286113
138.821712
-118.664454
137.778158
-119.417876
136.301921
-121.339357
133.839078
-124.072011
131.190105
-126.970926
128.239000
-130.012843
125.780240
-132.675570
123.185829
-135.087849
121.349463
-137.106292
118.853040
-119.215090
149.512709
-130.382892
147.506096
-132.112484
144.126748
-133.719511
140.994923
-135.183560
138.733617
-135.825826
137.329592
-136.109470
136.030947
-136.277551
134.960836
-136.597486
133.364786
-137.036596
131.665574
-138.019664
129.182774
-139.140052
125.127622
-128.218226
162.294449
-139.889208
162.115734
-139.548683
160.007663
-139.299147
157.842439
-139.849404
155.002933
-141.373075
151.660905
-143.234022
148.312353
-145.338344
144.808495
-147.160931
141.529379
-148.948786
138.412792
-150.081524
135.613093
-150.881731
131.939820
-140.088180
173.600258
-155.640701
171.827913
-156.376771
167.659271
-156.772145
164.005958
-156.683927
161.231387
-156.068032
158.929621
-155.440361
156.677691
-154.561357
154.370991
-153.914780
151.873469
-153.296144
148.800710
-153.131176
145.235880
-153.176362
138.993166
-151.178237
190.441084
-168.254035
190.406005
-167.176228
186.904192
-166.011892
182.981400
-165.765192
178.601623
-166.234811
174.153785
-166.733187
169.620219
-167.505159
165.226487
-168.095026
160.798483
-168.320303
156.683677
-168.014552
152.717080
-166.994303
146.792542
-166.166508
204.857734
-188.464227
203.860053
-187.934599
198.401420
-186.262824
193.590891
-184.197568
189.574488
-181.930237
185.621828
-179.802416
182.045722
-177.528736
178.223571
-175.133576
174.037950
-172.934869
169.243211
-171.043062
163.952958
-169.499765
154.780562
-180.495834
227.033307
-206.174909
227.633561
-203.800865
221.735413
-200.936238
215.399473
-199.017080
208.901800
-197.453012
202.928176
-196.209556
196.599248
-194.806042
190.194673
-193.203001
184.022856
-191.261751
178.301301
-189.069075
172.999798
-185.983328
163.757652
-199.546873
246.420580
-232.225240
246.741422
-229.718287
239.274772
-225.169784
232.377776
-220.292670
226.070627
-215.944498
219.693654
-210.871303
213.359239
-205.709729
207.041846
-200.859557
200.565013
-196.542084
193.734246
-192.610436
186.173804
-188.556423
172.274438
-218.336685
275.243166
-257.299704
277.640830
-253.537758
268.590529
-247.864432
258.636068
-242.900857
249.199731
-237.393226
239.303029
-232.519602
229.789034
-228.109460
220.922088
-223.812217
212.624380
-219.218292
204.585429
-214.090888
196.728044
-207.589042
181.910378
-242.458035
302.235860
-292.186508
306.322613
-287.563936
295.532049
-278.226821
284.584113
-268.669971
272.691223
-259.131815
262.385374
-250.145997
252.932623
-241.703864
243.548785
-233.541767
233.603491
-225.495308
222.917590
-217.713760
211.326454
-209.266936
189.755229
-268.203203
341.220288
-329.125851
347.673561
-322.748784
332.739393
-311.353328
316.006172
-298.760959
300.936761
-288.872226
286.906546
-280.029318
273.533662
-271.161924
260.385123
-261.758432
247.365748
-251.895916
234.647190
-241.737985
222.269257
-229.889562
198.972781
-300.175770
379.678279
-375.911663
389.090800
-367.021074
372.052338
-349.061737
352.621055
-334.014561
336.582345
-319.049281
321.222659
-303.796908
305.390737
-288.186661
288.826833
-272.663115
271.836141
-257.827597
254.773637
-244.212794
237.571398
-229.986126
205.885703
-334.218536
430.086811
-427.336582
443.698816
-418.106530
420.070417
-398.042084
398.598191
-379.703052
375.389091
-360.841504
351.526137
-341.277022
327.804119
-321.695377
305.223894
-303.033845
284.521720
-285.922290
266.041368
-270.474466
249.225527
-253.309614
215.884726
-374.105912
483.021117
-491.776508
506.374017
-480.228246
483.786889
-458.248981
455.518495
-428.927698
425.269569
-398.046609
394.946916
-367.873005
365.833639
-339.969778
338.777555
-315.163361
314.032316
-293.688593
291.328960
-275.278353
269.338861
-255.437958
225.339208
-421.008838
554.328316
-571.203391
587.044521
-565.968756
560.592331
-528.944524
514.496352
-486.246155
467.563904
-445.006234
424.212190
-407.656526
386.152681
-375.299646
353.870232
-348.169283
327.105571
-325.895010
305.090752
-307.440388
285.492966
-285.432600
239.059497
-478.773037
635.631002
-667.396624
691.638063
-659.510856
642.128999
-598.143929
579.177279
-536.108755
522.270589
-482.182212
474.402258
-437.857204
435.325369
-402.446465
403.466103
-374.155413
376.447846
-350.610625
351.402453
-328.929092
323.477480
-298.642142
255.741289
-544.731775
734.339645
-789.857946
797.400253
-752.211222
719.571821
-671.699854
637.488546
-600.150239
569.743370
-542.841920
516.261673
-497.548194
473.525229
-460.449937
437.353695
-427.650079
403.967856
-396.032866
370.542126
-363.151073
332.936193
-317.455006
251.107100
-616.329538
846.101077
-891.341786
884.355877
-832.603520
798.809348
-742.156010
718.027340
-667.238707
654.870016
-609.014099
605.013319
-561.720558
562.091549
-519.450807
520.760517
-477.856172
477.426877
-434.399869
429.752742
-386.929456
371.868582
-320.832142
256.109021
-697.894493
905.793706
-945.123549
943.316796
-909.074121
880.315305
-845.881508
818.279636
-790.844984
765.234501
-741.357265
714.252875
-689.460991
657.558824
-628.520877
589.796519
-554.834124
508.661588
-467.654948
414.172959
-367.213423
303.736557
-243.551393
148.733340
