# vtk DataFile Version 2.0
cantilever_Q4P1_mix
ASCII
DATASET POLYDATA
POINTS 66 float
0.000000 0.000000 0.000000
48.000000 44.000000 0.000000
48.000000 60.000000 0.000000
0.000000 44.000000 0.000000
5.920209 5.426858 0.000000
11.558504 10.595295 0.000000
16.928308 15.517615 0.000000
22.042407 20.205540 0.000000
26.912978 24.670230 0.000000
31.551617 28.922315 0.000000
35.969368 32.971920 0.000000
40.176750 36.828687 0.000000
44.183780 40.501799 0.000000
48.000000 47.200000 0.000000
48.000000 50.400000 0.000000
48.000000 53.600000 0.000000
48.000000 56.800000 0.000000
44.183780 58.727927 0.000000
40.176750 57.392250 0.000000
35.969368 55.989789 0.000000
31.551617 54.517206 0.000000
26.912978 52.970993 0.000000
22.042407 51.347469 0.000000
16.928308 49.642769 0.000000
11.558504 47.852835 0.000000
5.920209 45.973403 0.000000
0.000000 35.200000 0.000000
0.000000 26.400000 0.000000
0.000000 17.600000 0.000000
0.000000 8.800000 0.000000
5.775544 13.424437 0.000000
5.736970 21.520543 0.000000
5.731466 29.645074 0.000000
5.763399 37.787112 0.000000
11.376078 17.907821 0.000000
11.313680 25.332095 0.000000
11.304749 32.801184 0.000000
11.357121 40.299829 0.000000
16.740237 22.200243 0.000000
16.670738 28.993257 0.000000
16.660426 35.835117 0.000000
16.718694 42.710822 0.000000
21.858735 26.295201 0.000000
21.789072 32.490948 0.000000
21.778505 38.735154 0.000000
21.836801 45.013687 0.000000
26.736632 30.197316 0.000000
26.669155 35.825676 0.000000
26.658814 41.500774 0.000000
26.715220 47.209273 0.000000
31.383234 33.914277 0.000000
31.318616 39.002752 0.000000
31.308671 44.135915 0.000000
31.362662 49.301115 0.000000
35.808874 37.454442 0.000000
35.747223 42.028896 0.000000
35.737721 46.645961 0.000000
35.789222 51.293608 0.000000
40.026461 40.827977 0.000000
39.969720 44.914175 0.000000
39.961265 49.039816 0.000000
40.008983 53.193498 0.000000
44.065131 44.056992 0.000000
44.025766 47.685481 0.000000
44.020537 51.341705 0.000000
44.054359 55.017253 0.000000
POLYGONS 50 250
4 0 4 30 29
4 29 30 31 28
4 28 31 32 27
4 27 32 33 26
4 26 33 25 3
4 4 5 34 30
4 30 34 35 31
4 31 35 36 32
4 32 36 37 33
4 33 37 24 25
4 5 6 38 34
4 34 38 39 35
4 35 39 40 36
4 36 40 41 37
4 37 41 23 24
4 6 7 42 38
4 38 42 43 39
4 39 43 44 40
4 40 44 45 41
4 41 45 22 23
4 7 8 46 42
4 42 46 47 43
4 43 47 48 44
4 44 48 49 45
4 45 49 21 22
4 8 9 50 46
4 46 50 51 47
4 47 51 52 48
4 48 52 53 49
4 49 53 20 21
4 9 10 54 50
4 50 54 55 51
4 51 55 56 52
4 52 56 57 53
4 53 57 19 20
4 10 11 58 54
4 54 58 59 55
4 55 59 60 56
4 56 60 61 57
4 57 61 18 19
4 11 12 62 58
4 58 62 63 59
4 59 63 64 60
4 60 64 65 61
4 61 65 17 18
4 12 1 13 62
4 62 13 14 63
4 63 14 15 64
4 64 15 16 65
4 65 16 2 17
POINT_DATA 66
VECTORS U float
0.150650 -0.081721 0.000000
-5.389860 25.061483 0.000000
-19.164002 26.802603 0.000000
-0.150650 0.081721 0.000000
-0.119533 1.399069 0.000000
0.331025 2.382295 0.000000
0.704353 3.605056 0.000000
1.196852 5.184531 0.000000
1.394014 7.447509 0.000000
1.092612 10.265152 0.000000
0.277692 13.529034 0.000000
-1.060954 17.169253 0.000000
-2.948310 21.064160 0.000000
-7.749797 25.268114 0.000000
-10.100330 25.652360 0.000000
-12.659572 26.096349 0.000000
-15.572773 26.538625 0.000000
-17.400851 22.189437 0.000000
-15.578188 18.311869 0.000000
-13.715221 14.755926 0.000000
-11.791348 11.526435 0.000000
-9.818572 8.676150 0.000000
-7.855711 6.240006 0.000000
-5.903302 4.274655 0.000000
-4.054731 2.677541 0.000000
-1.983219 1.793568 0.000000
0.150650 -0.081721 0.000000
-0.150650 0.081721 0.000000
0.150650 -0.081721 0.000000
-0.150650 0.081721 0.000000
0.250030 1.098202 0.000000
0.181936 0.786079 0.000000
0.069037 0.016484 0.000000
0.047991 0.134389 0.000000
0.558470 2.100367 0.000000
0.566602 1.401424 0.000000
0.258645 1.087662 0.000000
-1.154060 1.623818 0.000000
1.021957 3.191193 0.000000
0.749975 2.790944 0.000000
-0.396973 2.784869 0.000000
-2.589609 3.227607 0.000000
1.183685 4.909223 0.000000
0.299124 4.740532 0.000000
-1.461346 4.831101 0.000000
-4.164161 5.313449 0.000000
0.803394 7.229480 0.000000
-0.610957 7.164643 0.000000
-2.849695 7.345472 0.000000
-5.897637 7.812657 0.000000
-0.043920 10.067178 0.000000
-1.924639 10.072672 0.000000
-4.495247 10.291101 0.000000
-7.749391 10.761883 0.000000
-1.344751 13.356170 0.000000
-3.576650 13.405684 0.000000
-6.350174 13.673296 0.000000
-9.673614 14.111839 0.000000
-3.078271 17.016473 0.000000
-5.533775 17.152095 0.000000
-8.327113 17.447291 0.000000
-11.604409 17.803202 0.000000
-5.244217 21.030911 0.000000
-7.696830 21.270621 0.000000
-10.376315 21.570001 0.000000
-13.506596 21.844144 0.000000
CELL_DATA 50
SCALARS P float 1
LOOKUP_TABLE default
6.860608
4.261937
7.451414
-1.866848
-15.048689
5.542767
6.935009
2.388032
-4.808077
-7.954685
7.592845
5.563795
1.128152
-2.717355
-8.414544
8.954585
5.683265
2.034192
-2.930854
-7.609953
10.157179
6.434824
2.035769
-2.310900
-7.379806
10.654794
6.553058
2.404976
-2.110028
-6.739109
10.585797
6.547445
2.429778
-1.727705
-5.897462
10.052431
6.217569
2.279591
-1.190835
-4.681265
9.045567
5.002806
2.531509
0.241230
-3.239748
5.627916
4.711946
4.666278
3.921168
0.574707
