# vtk DataFile Version 2.0
cantilever_quad8_mix
ASCII
DATASET POLYDATA
POINTS 72 float
0.000000 -6.000000 0.000000
48.000000 -6.000000 0.000000
48.000000 6.000000 0.000000
0.000000 6.000000 0.000000
3.000000 -6.000000 0.000000
6.000000 -6.000000 0.000000
9.000000 -6.000000 0.000000
12.000000 -6.000000 0.000000
15.000000 -6.000000 0.000000
18.000000 -6.000000 0.000000
21.000000 -6.000000 0.000000
24.000000 -6.000000 0.000000
27.000000 -6.000000 0.000000
30.000000 -6.000000 0.000000
33.000000 -6.000000 0.000000
36.000000 -6.000000 0.000000
39.000000 -6.000000 0.000000
42.000000 -6.000000 0.000000
45.000000 -6.000000 0.000000
48.000000 -3.000000 0.000000
48.000000 -0.000000 0.000000
48.000000 3.000000 0.000000
45.000000 6.000000 0.000000
42.000000 6.000000 0.000000
39.000000 6.000000 0.000000
36.000000 6.000000 0.000000
33.000000 6.000000 0.000000
30.000000 6.000000 0.000000
27.000000 6.000000 0.000000
24.000000 6.000000 0.000000
21.000000 6.000000 0.000000
18.000000 6.000000 0.000000
15.000000 6.000000 0.000000
12.000000 6.000000 0.000000
9.000000 6.000000 0.000000
6.000000 6.000000 0.000000
3.000000 6.000000 0.000000
0.000000 3.000000 0.000000
0.000000 0.000000 0.000000
0.000000 -3.000000 0.000000
35.945692 -2.968048 0.000000
18.262933 0.056695 0.000000
27.720636 -2.391270 0.000000
21.990925 0.115321 0.000000
31.810373 -2.875633 0.000000
44.992360 0.004872 0.000000
9.915789 -1.687067 0.000000
41.616539 -0.038525 0.000000
20.579109 -2.882076 0.000000
44.141115 -2.911008 0.000000
25.679124 1.561316 0.000000
14.369631 0.002007 0.000000
33.932048 -0.182496 0.000000
40.186353 2.816840 0.000000
24.350239 -2.467370 0.000000
22.021123 2.933573 0.000000
40.054142 -2.907138 0.000000
7.416289 2.008729 0.000000
29.931296 0.057228 0.000000
3.305524 -2.134604 0.000000
16.782026 -2.816226 0.000000
3.691576 1.949819 0.000000
28.834346 2.917327 0.000000
36.299373 2.801049 0.000000
44.175572 2.901172 0.000000
32.581126 2.805779 0.000000
11.141406 2.142425 0.000000
37.841126 -0.147552 0.000000
18.378738 2.831662 0.000000
12.977853 -2.794080 0.000000
14.876784 2.921882 0.000000
6.550367 -2.074802 0.000000
POLYGONS 102 408
3 0 4 39
3 5 6 71
3 4 5 59
3 38 39 59
3 61 59 71
3 59 39 4
3 59 5 71
3 59 61 38
3 6 46 71
3 46 57 71
3 6 7 46
3 7 8 69
3 9 10 48
3 8 9 60
3 69 51 46
3 51 69 60
3 9 48 60
3 60 69 8
3 43 48 54
3 51 60 41
3 11 48 10
3 41 60 48
3 7 69 46
3 66 46 51
3 36 37 61
3 61 37 38
3 35 61 57
3 57 46 66
3 71 57 61
3 34 57 66
3 36 3 37
3 34 35 57
3 33 34 66
3 36 61 35
3 66 70 33
3 70 41 68
3 70 66 51
3 68 43 55
3 43 68 41
3 41 48 43
3 70 68 31
3 32 70 31
3 30 55 29
3 30 31 68
3 50 29 55
3 55 30 68
3 50 55 43
3 70 32 33
3 70 51 41
3 54 48 11
3 12 13 42
3 14 15 40
3 13 14 44
3 50 54 42
3 54 12 42
3 44 40 52
3 40 44 14
3 52 40 67
3 42 44 58
3 13 44 42
3 52 58 44
3 15 16 40
3 12 54 11
3 16 17 56
3 18 1 19
3 17 18 49
3 67 56 47
3 67 40 56
3 45 47 49
3 49 47 56
3 49 56 17
3 45 49 19
3 18 19 49
3 52 67 63
3 56 40 16
3 53 67 47
3 62 50 58
3 58 50 42
3 65 63 26
3 65 58 52
3 63 65 52
3 62 58 65
3 28 62 27
3 62 28 50
3 27 62 65
3 27 65 26
3 63 25 26
3 63 24 25
3 28 29 50
3 53 64 23
3 53 47 64
3 64 45 21
3 20 45 19
3 63 67 53
3 21 45 20
3 24 53 23
3 22 21 2
3 22 23 64
3 21 22 64
3 53 24 63
3 64 47 45
3 50 43 54
POINT_DATA 72
SCALARS P float 1
LOOKUP_TABLE default
1032.843585
-2.508769
-0.863210
-1011.229079
918.892013
879.649076
798.286084
749.501444
683.827596
621.264747
560.848120
493.947829
434.082955
371.112632
309.150493
247.636200
184.214649
122.557485
58.700147
4.216547
-0.612433
-0.401664
-64.385303
-129.055360
-189.494926
-254.324428
-312.737246
-383.002805
-435.603534
-501.674976
-573.261795
-622.585095
-698.286499
-743.237472
-815.971185
-859.803034
-952.888038
-405.749952
16.057417
471.513150
120.617511
-6.428791
162.012124
-14.599355
157.259773
-2.057261
213.559380
-0.767586
262.956737
40.380103
-116.985157
-2.741270
7.953426
-68.936337
197.434871
-240.285931
79.667756
-264.646272
-6.600238
308.070711
293.495253
-292.210608
-176.270004
-104.608857
-31.871490
-140.114969
-259.750913
3.578063
-274.747874
323.267057
-311.492525
286.127721
