# vtk DataFile Version 2.0
cantilever_Q4P1_mix
ASCII
DATASET POLYDATA
POINTS 1326 float
0.000000 0.000000 0.000000
48.000000 44.000000 0.000000
48.000000 60.000000 0.000000
0.000000 44.000000 0.000000
2.504079 2.295406 0.000000
4.888917 4.481507 0.000000
7.160191 6.563508 0.000000
9.323308 8.546366 0.000000
11.383421 10.434802 0.000000
13.345432 12.233313 0.000000
15.214015 13.946180 0.000000
16.993617 15.577483 0.000000
18.688477 17.131104 0.000000
20.302629 18.610743 0.000000
21.839916 20.019923 0.000000
23.304000 21.362000 0.000000
24.698365 22.640168 0.000000
26.026331 23.857470 0.000000
27.291062 25.016806 0.000000
28.495567 26.120936 0.000000
29.642714 27.172488 0.000000
30.735236 28.173966 0.000000
31.775732 29.127755 0.000000
32.766682 30.036125 0.000000
33.710443 30.901239 0.000000
34.609263 31.725158 0.000000
35.465282 32.509842 0.000000
36.280538 33.257160 0.000000
37.056973 33.968892 0.000000
37.796435 34.646732 0.000000
38.500684 35.292293 0.000000
39.171397 35.907114 0.000000
39.810172 36.492658 0.000000
40.418529 37.050318 0.000000
40.997916 37.581423 0.000000
41.549714 38.087238 0.000000
42.075235 38.568966 0.000000
42.575732 39.027754 0.000000
43.052396 39.464696 0.000000
43.506361 39.880831 0.000000
43.938709 40.277150 0.000000
44.350469 40.654596 0.000000
44.742621 41.014069 0.000000
45.116099 41.356424 0.000000
45.471793 41.682477 0.000000
45.810549 41.993003 0.000000
46.133173 42.288742 0.000000
46.440435 42.570399 0.000000
46.733065 42.838643 0.000000
47.011760 43.094114 0.000000
47.277184 43.337419 0.000000
47.529969 43.569138 0.000000
47.770717 43.789824 0.000000
48.000000 44.640000 0.000000
48.000000 45.280000 0.000000
48.000000 45.920000 0.000000
48.000000 46.560000 0.000000
48.000000 47.200000 0.000000
48.000000 47.840000 0.000000
48.000000 48.480000 0.000000
48.000000 49.120000 0.000000
48.000000 49.760000 0.000000
48.000000 50.400000 0.000000
48.000000 51.040000 0.000000
48.000000 51.680000 0.000000
48.000000 52.320000 0.000000
48.000000 52.960000 0.000000
48.000000 53.600000 0.000000
48.000000 54.240000 0.000000
48.000000 54.880000 0.000000
48.000000 55.520000 0.000000
48.000000 56.160000 0.000000
48.000000 56.800000 0.000000
48.000000 57.440000 0.000000
48.000000 58.080000 0.000000
48.000000 58.720000 0.000000
48.000000 59.360000 0.000000
47.770717 59.923572 0.000000
47.529969 59.843323 0.000000
47.277184 59.759061 0.000000
47.011760 59.670587 0.000000
46.733065 59.577688 0.000000
46.440435 59.480145 0.000000
46.133173 59.377724 0.000000
45.810549 59.270183 0.000000
45.471793 59.157264 0.000000
45.116099 59.038700 0.000000
44.742621 58.914207 0.000000
44.350469 58.783490 0.000000
43.938709 58.646236 0.000000
43.506361 58.502120 0.000000
43.052396 58.350799 0.000000
42.575732 58.191911 0.000000
42.075235 58.025078 0.000000
41.549714 57.849905 0.000000
40.997916 57.665972 0.000000
40.418529 57.472843 0.000000
39.810172 57.270057 0.000000
39.171397 57.057132 0.000000
38.500684 56.833561 0.000000
37.796435 56.598812 0.000000
37.056973 56.352324 0.000000
36.280538 56.093513 0.000000
35.465282 55.821761 0.000000
34.609263 55.536421 0.000000
33.710443 55.236814 0.000000
32.766682 54.922227 0.000000
31.775732 54.591911 0.000000
30.735236 54.245079 0.000000
29.642714 53.880905 0.000000
28.495567 53.498522 0.000000
27.291062 53.097021 0.000000
26.026331 52.675444 0.000000
24.698365 52.232788 0.000000
23.303999 51.768000 0.000000
21.839916 51.279972 0.000000
20.302629 50.767543 0.000000
18.688477 50.229492 0.000000
16.993617 49.664539 0.000000
15.214015 49.071338 0.000000
13.345432 48.448477 0.000000
11.383421 47.794474 0.000000
9.323308 47.107769 0.000000
7.160191 46.386730 0.000000
4.888917 45.629639 0.000000
2.504079 44.834693 0.000000
0.000000 42.240000 0.000000
0.000000 40.480000 0.000000
0.000000 38.720000 0.000000
0.000000 36.960000 0.000000
0.000000 35.200000 0.000000
0.000000 33.440000 0.000000
0.000000 31.680000 0.000000
0.000000 29.920000 0.000000
0.000000 28.160000 0.000000
0.000000 26.400000 0.000000
0.000000 24.640000 0.000000
0.000000 22.880000 0.000000
0.000000 21.120000 0.000000
0.000000 19.360000 0.000000
0.000000 17.600000 0.000000
0.000000 15.840000 0.000000
0.000000 14.080000 0.000000
0.000000 12.320000 0.000000
0.000000 10.560000 0.000000
0.000000 8.800000 0.000000
0.000000 7.040000 0.000000
0.000000 5.280000 0.000000
0.000000 3.520000 0.000000
0.000000 1.760000 0.000000
2.442889 3.942653 0.000000
2.426497 5.631082 0.000000
2.422334 7.330758 0.000000
2.421356 9.033367 0.000000
2.421143 10.736678 0.000000
2.421098 12.440145 0.000000
2.421090 14.143645 0.000000
2.421088 15.847152 0.000000
2.421088 17.550659 0.000000
2.421088 19.254167 0.000000
2.421088 20.957675 0.000000
2.421088 22.661183 0.000000
2.421088 24.364691 0.000000
2.421088 26.068199 0.000000
2.421088 27.771707 0.000000
2.421088 29.475215 0.000000
2.421088 31.178723 0.000000
2.421088 32.882231 0.000000
2.421088 34.585739 0.000000
2.421088 36.289247 0.000000
2.421089 37.992755 0.000000
2.421165 39.696289 0.000000
2.423001 41.400415 0.000000
2.437489 43.108802 0.000000
4.811743 6.059080 0.000000
4.785001 7.683066 0.000000
4.777118 9.324409 0.000000
4.775031 10.971085 0.000000
4.774522 12.619215 0.000000
4.774406 14.267706 0.000000
4.774381 15.916281 0.000000
4.774376 17.564874 0.000000
4.774375 19.213471 0.000000
4.774375 20.862069 0.000000
4.774375 22.510667 0.000000
4.774375 24.159265 0.000000
4.774375 25.807863 0.000000
4.774375 27.456461 0.000000
4.774375 29.105059 0.000000
4.774375 30.753656 0.000000
4.774375 32.402254 0.000000
4.774375 34.050852 0.000000
4.774375 35.699450 0.000000
4.774375 37.348048 0.000000
4.774387 38.996650 0.000000
4.774738 40.645366 0.000000
4.778843 42.295348 0.000000
4.803096 43.952122 0.000000
7.080595 8.086017 0.000000
7.050554 9.654162 0.000000
7.040739 11.240931 0.000000
7.037877 12.834103 0.000000
7.037113 14.429206 0.000000
7.036923 16.024837 0.000000
7.036879 17.620603 0.000000
7.036869 19.216400 0.000000
7.036867 20.812205 0.000000
7.036866 22.408011 0.000000
7.036866 24.003817 0.000000
7.036866 25.599624 0.000000
7.036866 27.195430 0.000000
7.036866 28.791237 0.000000
7.036866 30.387043 0.000000
7.036866 31.982850 0.000000
7.036866 33.578656 0.000000
7.036866 35.174462 0.000000
7.036866 36.770269 0.000000
7.036868 38.366076 0.000000
7.036913 39.961898 0.000000
7.037558 41.557921 0.000000
7.043014 43.155569 0.000000
7.070548 44.760668 0.000000
9.245537 10.020048 0.000000
9.215251 11.537476 0.000000
9.204868 13.073237 0.000000
9.201653 14.615600 0.000000
9.200737 16.160079 0.000000
9.200493 17.705179 0.000000
9.200432 19.250446 0.000000
9.200417 20.795756 0.000000
9.200414 22.341077 0.000000
9.200413 23.886400 0.000000
9.200413 25.431723 0.000000
9.200413 26.977047 0.000000
9.200413 28.522371 0.000000
9.200413 30.067694 0.000000
9.200413 31.613018 0.000000
9.200413 33.158342 0.000000
9.200413 34.703666 0.000000
9.200413 36.248989 0.000000
9.200413 37.794313 0.000000
9.200418 39.339638 0.000000
9.200498 40.884989 0.000000
9.201317 42.430589 0.000000
9.207234 43.977911 0.000000
9.235145 45.532662 0.000000
11.308724 11.863147 0.000000
11.279299 13.333204 0.000000
11.269003 14.820883 0.000000
11.265714 16.315018 0.000000
11.264738 17.811284 0.000000
11.264466 19.308198 0.000000
11.264394 20.805296 0.000000
11.264375 22.302444 0.000000
11.264371 23.799605 0.000000
11.264370 25.296769 0.000000
11.264370 26.793933 0.000000
11.264370 28.291098 0.000000
11.264370 29.788263 0.000000
11.264370 31.285427 0.000000
11.264370 32.782592 0.000000
11.264370 34.279757 0.000000
11.264370 35.776921 0.000000
11.264370 37.274086 0.000000
11.264370 38.771251 0.000000
11.264379 40.268419 0.000000
11.264479 41.765617 0.000000
11.265362 43.263080 0.000000
11.271290 44.762248 0.000000
11.298483 46.268602 0.000000
13.274094 13.618851 0.000000
13.245876 15.044121 0.000000
13.235919 16.486217 0.000000
13.232693 17.934514 0.000000
13.231715 19.384882 0.000000
13.231435 20.835892 0.000000
13.231358 22.287090 0.000000
13.231338 23.738341 0.000000
13.231332 25.189605 0.000000
13.231331 26.640873 0.000000
13.231331 28.092142 0.000000
13.231331 29.543410 0.000000
13.231331 30.994679 0.000000
13.231331 32.445948 0.000000
13.231331 33.897217 0.000000
13.231331 35.348486 0.000000
13.231331 36.799755 0.000000
13.231331 38.251024 0.000000
13.231332 39.702293 0.000000
13.231343 41.153566 0.000000
13.231451 42.604872 0.000000
13.232336 44.056440 0.000000
13.238092 45.509654 0.000000
13.264205 46.969750 0.000000
15.146011 15.291068 0.000000
15.119073 16.673795 0.000000
15.109538 18.072558 0.000000
15.106430 19.477242 0.000000
15.105478 20.883912 0.000000
15.105200 22.291205 0.000000
15.105123 23.698681 0.000000
15.105102 25.106209 0.000000
15.105096 26.513752 0.000000
15.105095 27.921299 0.000000
15.105095 29.328846 0.000000
15.105095 30.736394 0.000000
15.105095 32.143942 0.000000
15.105095 33.551489 0.000000
15.105095 34.959037 0.000000
15.105095 36.366585 0.000000
15.105095 37.774133 0.000000
15.105095 39.181681 0.000000
15.105096 40.589229 0.000000
15.105108 41.996781 0.000000
15.105217 43.404365 0.000000
15.106077 44.812204 0.000000
15.111599 46.221618 0.000000
15.136542 47.637599 0.000000
16.928832 16.883693 0.000000
16.903157 18.225939 0.000000
16.894058 19.583460 0.000000
16.891085 20.946626 0.000000
16.890170 22.311688 0.000000
16.889901 23.677345 0.000000
16.889825 25.043179 0.000000
16.889804 26.409065 0.000000
16.889799 27.774965 0.000000
16.889797 29.140868 0.000000
16.889797 30.506772 0.000000
16.889797 31.872677 0.000000
16.889797 33.238582 0.000000
16.889797 34.604486 0.000000
16.889797 35.970391 0.000000
16.889797 37.336296 0.000000
16.889797 38.702201 0.000000
16.889797 40.068105 0.000000
16.889798 41.434011 0.000000
16.889810 42.799919 0.000000
16.889917 44.165860 0.000000
16.890743 45.532044 0.000000
16.896016 46.899731 0.000000
16.919796 48.273676 0.000000
18.626771 18.400489 0.000000
18.602311 19.704195 0.000000
18.593640 21.022448 0.000000
18.590804 22.346079 0.000000
[...]
POINT_DATA 1326
VECTORS U float
0.001929 -0.002411 0.000000
-5.463134 25.400215 0.000000
-19.822480 27.469661 0.000000
-0.001929 0.002411 0.000000
0.005723 0.612153 0.000000
0.026855 1.141683 0.000000
0.042590 1.611710 0.000000
0.113098 2.026756 0.000000
0.213564 2.413760 0.000000
0.364493 2.800898 0.000000
0.528097 3.207594 0.000000
0.710948 3.649352 0.000000
0.878660 4.131295 0.000000
1.038024 4.656507 0.000000
1.163649 5.221364 0.000000
1.265609 5.822592 0.000000
1.326890 6.453486 0.000000
1.359666 7.108907 0.000000
1.352899 7.782265 0.000000
1.318971 8.468695 0.000000
1.250656 9.162889 0.000000
1.159214 9.860897 0.000000
1.039828 10.558810 0.000000
0.902018 11.253590 0.000000
0.742573 11.942484 0.000000
0.569158 12.623200 0.000000
0.379707 13.293846 0.000000
0.180168 13.952715 0.000000
-0.030682 14.598540 0.000000
-0.248353 15.230076 0.000000
-0.473462 15.846505 0.000000
-0.702694 16.446959 0.000000
-0.936250 17.030942 0.000000
-1.171728 17.597897 0.000000
-1.409074 18.147567 0.000000
-1.646563 18.679645 0.000000
-1.884009 19.194054 0.000000
-2.120188 19.690688 0.000000
-2.354863 20.169609 0.000000
-2.587173 20.630868 0.000000
-2.816886 21.074636 0.000000
-3.043407 21.501087 0.000000
-3.266541 21.910477 0.000000
-3.485888 22.303074 0.000000
-3.701314 22.679208 0.000000
-3.912575 23.039221 0.000000
-4.119613 23.383506 0.000000
-4.322331 23.712480 0.000000
-4.520798 24.026602 0.000000
-4.715115 24.326390 0.000000
-4.905671 24.612411 0.000000
-5.093036 24.885443 0.000000
-5.278881 25.146202 0.000000
-5.996966 25.417733 0.000000
-6.486298 25.449619 0.000000
-6.960368 25.488113 0.000000
-7.426587 25.537429 0.000000
-7.890088 25.594340 0.000000
-8.353918 25.658878 0.000000
-8.820509 25.729762 0.000000
-9.291775 25.806530 0.000000
-9.769366 25.888405 0.000000
-10.254746 25.974882 0.000000
-10.749273 26.065368 0.000000
-11.254243 26.159379 0.000000
-11.770943 26.256408 0.000000
-12.300675 26.355995 0.000000
-12.844839 26.457688 0.000000
-13.404921 26.561046 0.000000
-13.982689 26.665672 0.000000
-14.580097 26.771142 0.000000
-15.199844 26.877142 0.000000
-15.844934 26.983248 0.000000
-16.520657 27.089290 0.000000
-17.232657 27.194797 0.000000
-17.995708 27.299190 0.000000
-18.826792 27.404706 0.000000
-19.678978 27.060368 0.000000
-19.528759 26.674104 0.000000
-19.373944 26.295985 0.000000
-19.215703 25.920112 0.000000
-19.054095 25.542868 0.000000
-18.888820 25.161830 0.000000
-18.719475 24.775223 0.000000
-18.545630 24.381661 0.000000
-18.366872 23.979993 0.000000
-18.182778 23.569223 0.000000
-17.992934 23.148449 0.000000
-17.796893 22.716846 0.000000
-17.594213 22.273633 0.000000
-17.384385 21.818081 0.000000
-17.166908 21.349493 0.000000
-16.941184 20.867222 0.000000
-16.706634 20.370664 0.000000
-16.462558 19.859285 0.000000
-16.208290 19.332615 0.000000
-15.943030 18.790286 0.000000
-15.666041 18.232027 0.000000
-15.376446 17.657709 0.000000
-15.073468 17.067343 0.000000
-14.756211 16.461115 0.000000
-14.423906 15.839402 0.000000
-14.075718 15.202777 0.000000
-13.710943 14.552057 0.000000
-13.328916 13.888248 0.000000
-12.929035 13.212668 0.000000
-12.510929 12.526773 0.000000
-12.074093 11.832431 0.000000
-11.618608 11.131526 0.000000
-11.143973 10.426522 0.000000
-10.650936 9.719671 0.000000
-10.138769 9.014100 0.000000
-9.609216 8.312294 0.000000
-9.060837 7.618177 0.000000
-8.496973 6.934187 0.000000
-7.914461 6.265359 0.000000
-7.319446 5.613459 0.000000
-6.704829 4.985455 0.000000
-6.082338 4.380828 0.000000
-5.435563 3.811050 0.000000
-4.789371 3.268088 0.000000
-4.102656 2.777440 0.000000
-3.438434 2.301601 0.000000
-2.675821 1.923595 0.000000
-2.016528 1.453892 0.000000
-1.002496 1.276227 0.000000
0.001929 -0.002411 0.000000
-0.001929 0.002411 0.000000
0.001929 -0.002411 0.000000
-0.001929 0.002411 0.000000
0.001929 -0.002411 0.000000
-0.001929 0.002411 0.000000
0.001929 -0.002411 0.000000
-0.001929 0.002411 0.000000
0.001929 -0.002411 0.000000
-0.001929 0.002411 0.000000
0.001929 -0.002411 0.000000
-0.001929 0.002411 0.000000
0.001929 -0.002411 0.000000
-0.001929 0.002411 0.000000
0.001929 -0.002411 0.000000
-0.001929 0.002411 0.000000
0.001929 -0.002411 0.000000
-0.001929 0.002411 0.000000
0.001929 -0.002411 0.000000
-0.001929 0.002411 0.000000
0.001929 -0.002411 0.000000
-0.001929 0.002411 0.000000
0.001929 -0.002411 0.000000
-0.001929 0.002411 0.000000
0.007577 0.581644 0.000000
0.000929 0.573999 0.000000
0.011046 0.565262 0.000000
0.010887 0.557254 0.000000
0.022766 0.535196 0.000000
0.024175 0.510719 0.000000
0.034594 0.469383 0.000000
0.035269 0.427858 0.000000
0.042889 0.370432 0.000000
0.042000 0.316941 0.000000
0.046332 0.249895 0.000000
0.043699 0.191482 0.000000
0.044450 0.122289 0.000000
0.040053 0.066675 0.000000
0.036641 0.003330 0.000000
0.030255 -0.040872 0.000000
0.021175 -0.088987 0.000000
0.011844 -0.110535 0.000000
-0.006875 -0.129789 0.000000
-0.022452 -0.109741 0.000000
-0.062977 -0.073433 0.000000
-0.097947 0.032431 0.000000
-0.212171 0.201103 0.000000
-0.343619 0.553368 0.000000
0.016852 1.113177 0.000000
0.033848 1.091120 0.000000
0.045273 1.068265 0.000000
0.072082 1.030528 0.000000
0.088539 0.985281 0.000000
0.113569 0.920631 0.000000
0.126715 0.850977 0.000000
0.144573 0.763335 0.000000
0.150908 0.676242 0.000000
0.159465 0.574951 0.000000
0.157754 0.480916 0.000000
0.156018 0.377525 0.000000
0.145582 0.288716 0.000000
0.132210 0.196204 0.000000
0.111619 0.126550 0.000000
0.083356 0.060305 0.000000
0.048735 0.027420 0.000000
-0.002522 0.008424 0.000000
-0.061417 0.038414 0.000000
-0.156932 0.100757 0.000000
-0.269159 0.238772 0.000000
-0.473212 0.445832 0.000000
-0.733733 0.768001 0.000000
-1.293087 1.215630 0.000000
0.070996 1.577330 0.000000
0.097720 1.543569 0.000000
0.142635 1.496962 0.000000
0.177442 1.440379 0.000000
0.219971 1.364109 0.000000
0.248227 1.280160 0.000000
0.278473 1.178091 0.000000
0.293526 1.074657 0.000000
0.307216 0.957594 0.000000
0.306304 0.846856 0.000000
0.301346 0.728359 0.000000
0.282775 0.624623 0.000000
0.256836 0.520052 0.000000
0.217852 0.439593 0.000000
0.166100 0.366717 0.000000
0.100456 0.328997 0.000000
0.012142 0.309954 0.000000
-0.094262 0.339992 0.000000
-0.243102 0.404310 0.000000
-0.422065 0.534421 0.000000
-0.685819 0.718917 0.000000
-1.007275 0.974362 0.000000
-1.501203 1.290898 0.000000
-2.065770 1.549090 0.000000
0.157798 1.988572 0.000000
0.222502 1.941403 0.000000
0.276835 1.882946 0.000000
0.337625 1.805478 0.000000
0.381490 1.718325 0.000000
0.424375 1.613543 0.000000
0.448222 1.505907 0.000000
0.466955 1.385476 0.000000
0.466582 1.270406 0.000000
0.458001 1.148780 0.000000
0.430770 1.041323 0.000000
0.391716 0.934527 0.000000
0.333925 0.851297 0.000000
0.258694 0.777077 0.000000
0.163017 0.736664 0.000000
0.040265 0.715151 0.000000
-0.107788 0.738451 0.000000
-0.299931 0.792119 0.000000
-0.527541 0.900008 0.000000
-0.828522 1.048725 0.000000
-1.180296 1.247603 0.000000
-1.645132 1.487231 0.000000
-2.157498 1.719811 0.000000
-2.745862 2.023342 0.000000
0.299501 2.371749 0.000000
0.373987 2.318597 0.000000
0.453251 2.248238 0.000000
0.512720 2.166483 0.000000
0.568060 2.067673 0.000000
0.600507 1.964392 0.000000
0.624132 1.848952 0.000000
0.624331 1.737560 0.000000
0.612381 1.620257 0.000000
0.577124 1.515802 0.000000
0.526037 1.412410 0.000000
0.451257 1.330807 0.000000
0.355246 1.257902 0.000000
0.233703 1.215790 0.000000
0.082317 1.190620 0.000000
-0.098840 1.204693 0.000000
-0.323445 1.243959 0.000000
-0.585053 1.327897 0.000000
-0.909867 1.443142 0.000000
-1.279662 1.598389 0.000000
-1.733293 1.785844 0.000000
-2.228521 1.985853 0.000000
-2.797126 2.234688 0.000000
-3.428653 2.475504 0.000000
0.459367 2.755366 0.000000
0.557053 2.696946 0.000000
0.632126 2.626299 0.000000
0.699879 2.539422 0.000000
0.740976 2.446285 0.000000
0.769675 2.341333 0.000000
0.770946 2.238696 0.000000
0.756498 2.130288 0.000000
0.714650 2.032833 0.000000
0.653587 1.936106 0.000000
0.564755 1.858666 0.000000
0.451830 1.788699 0.000000
0.309615 1.745846 0.000000
0.136028 1.717226 0.000000
-0.070020 1.722344 0.000000
-0.317947 1.747842 0.000000
-0.603016 1.810627 0.000000
-0.943481 1.898079 0.000000
-1.325167 2.019494 0.000000
-1.774646 2.167605 0.000000
-2.263450 2.335198 0.000000
-2.818347 2.538850 0.000000
-3.419233 2.744612 0.000000
-4.066129 2.996635 0.000000
0.643322 3.159625 0.000000
0.733732 3.101541 0.000000
0.813935 3.029558 0.000000
0.864005 2.949882 0.000000
0.898310 2.858674 0.000000
0.901551 2.767776 0.000000
0.885906 2.670909 0.000000
0.839354 2.582731 0.000000
0.770809 2.494531 0.000000
0.671236 2.422780 0.000000
0.545490 2.356905 0.000000
0.387727 2.314363 0.000000
0.197861 2.283292 0.000000
-0.026091 2.280991 0.000000
-0.290144 2.294992 0.000000
-0.591067 2.340509 0.000000
-0.941589 2.405810 0.000000
-1.330978 2.500694 0.000000
-1.778270 2.617892 0.000000
-2.263332 2.756455 0.000000
-2.807437 2.923418 0.000000
-3.391021 3.099684 0.000000
-4.021393 3.312122 0.000000
-4.705110 3.537780 0.000000
0.815379 3.599092 0.000000
0.907610 3.541018 0.000000
0.966953 3.475452 0.000000
1.007540 3.399241 0.000000
1.013856 3.321416 0.000000
0.998503 3.237334 0.000000
0.949281 3.159527 0.000000
0.875811 3.080795 0.000000
0.768736 3.015601 0.000000
0.634001 2.954643 0.000000
0.465274 2.913410 0.000000
0.264190 2.881133 0.000000
0.028012 2.873281 0.000000
-0.246573 2.878383 0.000000
-0.557687 2.910355 0.000000
-0.914058 2.958339 0.000000
-1.307755 3.032335 0.000000
-1.752662 3.124987 0.000000
-2.234064 3.238812 0.000000
-2.768608 3.375800 0.000000
-3.339816 3.526080 0.000000
-3.957641 3.705477 0.000000
-4.617864 3.895914 0.000000
-5.318402 4.122040 0.000000
0.981262 4.079817 0.000000
1.049630 4.025195 0.000000
1.096984 3.962970 0.000000
1.107434 3.898030 0.000000
1.093827 3.826834 0.000000
1.043883 3.759596 0.000000
0.967865 3.690584 0.000000
0.856216 3.632305 0.000000
0.715850 3.576760 0.000000
0.540052 3.537632 0.000000
0.331917 3.505299 0.000000
0.088048 3.493633 0.000000
-0.192716 3.492201 0.000000
-0.509687 3.513798 0.000000
-0.868583 3.548410 0.000000
-1.263729 3.605968 0.000000
-1.705228 3.679119 0.000000
-2.182157 3.772377 0.000000
-2.707461 3.884855 0.000000
-3.267828 4.012346 0.000000
-3.873470 4.163843 0.000000
-4.516726 4.326994 0.000000
-5.198587 4.518213 0.000000
-5.927289 4.730193 0.000000
1.113945 4.603907 0.000000
1.167908 4.551348 0.000000
1.183236 4.497251 0.000000
1.172594 4.437918 0.000000
1.123631 4.380678 0.000000
1.047118 4.321072 0.000000
0.933398 4.269623 0.000000
0.790211 4.219658 0.000000
0.610545 4.183142 0.000000
0.398709 4.151641 0.000000
0.150734 4.137566 0.000000
-0.132811 4.131534 0.000000
-0.452274 4.145300 0.000000
-0.811036 4.169669 0.000000
-1.205238 4.214307 0.000000
-1.642089 4.271985 0.000000
-2.113465 4.348356 0.000000
-2.629349 4.440827 0.000000
-3.179154 4.548704 0.000000
-3.772199 4.676591 0.000000
-4.400373 4.816965 0.000000
-5.067132 4.980636 0.000000
-5.772868 5.159120 0.000000
-6.517593 5.367957 0.000000
1.222889 5.168417 0.000000
1.243209 5.119972 0.000000
1.236351 5.069911 0.000000
1.189717 5.021257 0.000000
1.114373 4.970209 0.000000
1.000622 4.925118 0.000000
0.856878 4.880574 0.000000
0.675908 4.846870 0.000000
0.463015 4.816774 0.000000
0.213743 4.801307 0.000000
-0.069945 4.792149 0.000000
-0.389280 4.800034 0.000000
-0.745790 4.816587 0.000000
-1.137089 4.851054 0.000000
-1.568100 4.896460 0.000000
-2.032853 4.959043 0.000000
-2.538921 5.035206 0.000000
-3.077969 5.126449 0.000000
-3.657997 5.234502 0.000000
-4.271501 5.355378 0.000000
-4.923212 5.496049 0.000000
-5.610434 5.649596 0.000000
-6.333236 5.826052 0.000000
-7.099041 6.025307 0.000000
1.290028 5.769363 0.000000
1.287181 5.723173 0.000000
1.243806 5.680345 0.000000
1.170886 5.636343 0.000000
1.058694 5.596739 0.000000
0.916152 5.557158 0.000000
0.735879 5.526178 0.000000
0.523974 5.497753 0.000000
0.275579 5.481550 0.000000
-0.006222 5.470308 0.000000
-0.323404 5.473747 0.000000
-0.676002 5.484316 0.000000
-1.062833 5.510732 0.000000
-1.486981 5.546373 0.000000
-1.944168 5.597703 0.000000
-2.439989 5.660568 0.000000
-2.967949 5.737829 0.000000
-3.534647 5.829321 0.000000
-4.133537 5.933532 0.000000
-4.769638 6.054627 0.000000
-5.439222 6.187883 0.000000
-6.143640 6.340094 0.000000
-6.884520 6.507885 0.000000
-7.663898 6.702465 0.000000
1.327456 6.400438 0.000000
1.287794 6.357890 0.000000
1.218164 6.318188 0.000000
1.108722 6.282643 0.000000
0.968704 6.247245 0.000000
0.790649 6.218639 0.000000
0.581278 6.191884 0.000000
0.335412 6.175288 0.000000
0.057037 6.162639 0.000000
-0.256444 6.162639 0.000000
-0.603859 6.168567 0.000000
-0.985007 6.188528 0.000000
-1.401474 6.216340 0.000000
-1.850338 6.258442 0.000000
-2.335545 6.310431 0.000000
-2.852111 6.375976 0.000000
-3.405288 6.453676 0.000000
-3.989561 6.543715 0.000000
-4.609664 6.648196 0.000000
-5.261674 6.764311 0.000000
-5.947967 6.896712 0.000000
-6.667879 7.041847 0.000000
-7.421909 7.206168 0.000000
-8.216588 7.392944 0.000000
1.323586 7.056127 0.000000
1.257762 7.015371 0.000000
1.151946 6.981302 0.000000
1.015425 6.948799 0.000000
0.840721 6.921938 0.000000
0.635024 6.896617 0.000000
0.392923 6.879717 0.000000
0.119111 6.866046 0.000000
-0.189510 6.863267 0.000000
-0.530796 6.865504 0.000000
-0.905348 6.880183 0.000000
-1.313524 6.901634 0.000000
-1.753499 6.936091 0.000000
-2.227836 6.979122 0.000000
-2.732794 7.034833 0.000000
-3.272390 7.101038 0.000000
-3.842092 7.179056 0.000000
-4.446057 7.269502 0.000000
-5.080565 7.371050 0.000000
-5.748445 7.486682 0.000000
-6.448156 7.613716 0.000000
-7.180573 7.756332 0.000000
-7.947634 7.913777 0.000000
-8.752733 8.095048 0.000000
1.291041 7.729974 0.000000
1.189533 7.692146 0.000000
1.057261 7.660122 0.000000
0.886767 7.633900 0.000000
0.685575 7.609518 0.000000
0.448146 7.592189 0.000000
0.179719 7.577647 0.000000
-0.123194 7.572484 0.000000
-0.457673 7.571668 0.000000
-0.824970 7.581900 0.000000
-1.224435 7.598076 0.000000
-1.655135 7.626099 0.000000
-2.118471 7.661670 0.000000
-2.611727 7.709068 0.000000
-3.137807 7.765650 0.000000
-3.693072 7.833464 0.000000
-4.280976 7.912071 0.000000
-4.898185 8.001245 0.000000
-5.547560 8.102633 0.000000
-6.227228 8.214504 0.000000
-6.938675 8.339754 0.000000
-7.682138 8.476733 0.000000
-8.458717 8.629871 0.000000
-9.274290 8.804021 0.000000
1.222339 8.417040 0.000000
1.095020 8.380528 0.000000
0.929473 8.352740 0.000000
0.733422 8.328338 0.000000
0.501337 8.310216 0.000000
0.238877 8.294757 0.000000
-0.057721 8.287398 0.000000
-0.384929 8.283929 0.000000
-0.744516 8.290283 0.000000
-1.135013 8.301965 0.000000
-1.556211 8.324457 0.000000
-2.008533 8.353714 0.000000
-2.490109 8.394002 0.000000
-3.002857 8.442459 0.000000
-3.543920 8.501569 0.000000
-4.116014 8.570174 0.000000
-4.716261 8.648826 0.000000
-5.347296 8.738138 0.000000
-6.007191 8.837185 0.000000
-6.697773 8.947856 0.000000
-7.418641 9.068737 0.000000
-8.170733 9.202406 0.000000
-8.956061 9.349432 0.000000
-9.778788 9.517568 0.000000
1.129099 9.111921 0.000000
0.969335 9.077757 0.000000
0.779041 9.051279 0.000000
0.552851 9.031552 0.000000
0.296782 9.014902 0.000000
0.006928 9.005359 0.000000
-0.312707 8.999450 0.000000
-0.664288 9.002289 0.000000
-1.045691 9.010019 0.000000
-1.457285 9.027631 0.000000
-1.898683 9.051429 0.000000
-2.368704 9.085534 0.000000
-2.868404 9.127042 0.000000
-3.395597 9.178660 0.000000
-3.952273 9.238767 0.000000
-4.536017 9.308445 0.000000
-5.149089 9.387521 0.000000
-5.789664 9.475706 0.000000
-6.459645 9.574037 0.000000
-7.158351 9.681529 0.000000
-7.887018 9.799905 0.000000
-8.646341 9.928548 0.000000
-9.437897 10.070727 0.000000
-10.267071 10.231998 0.000000
1.006377 9.810822 0.000000
0.822683 9.777688 0.000000
0.603000 9.754462 0.000000
0.353698 9.735902 0.000000
0.070916 9.723974 0.000000
-0.240953 9.715672 0.000000
-0.584348 9.715200 0.000000
-0.956626 9.719331 0.000000
-1.358614 9.732516 0.000000
-1.789254 9.751475 0.000000
-2.247929 9.780087 0.000000
-2.734945 9.815545 0.000000
-3.248682 9.860626 0.000000
-3.790443 9.913444 0.000000
-4.358248 9.975412 0.000000
-4.953902 10.045794 0.000000
-5.575761 10.124762 0.000000
-6.225625 10.212654 0.000000
-6.902704 10.308882 0.000000
-7.608439 10.414525 0.000000
-8.343085 10.528913 0.000000
-9.107774 10.653673 0.000000
-9.904528 10.790036 0.000000
-10.737836 10.944988 0.000000
0.864061 10.509570 0.000000
0.651845 10.478400 0.000000
0.409826 10.456132 0.000000
0.134451 10.441188 0.000000
-0.169505 10.430333 0.000000
-0.504604 10.426608 0.000000
-0.867788 10.427344 0.000000
-1.260234 10.436394 0.000000
-1.680336 10.450941 0.000000
-2.127931 10.474555 0.000000
-2.602684 10.504631 0.000000
-3.103440 10.543901 0.000000
-3.630875 10.590373 0.000000
-4.183387 10.645647 0.000000
-4.762300 10.708596 0.000000
-5.366174 10.779714 0.000000
-5.996585 10.858780 0.000000
-6.652740 10.945521 0.000000
-7.336134 11.040458 0.000000
-8.046832 11.143070 0.000000
-8.786081 11.254358 0.000000
-9.554848 11.374275 0.000000
-10.355001 11.505428 0.000000
-11.191488 11.653636 0.000000
0.698864 11.205432 0.000000
0.465088 11.175183 0.000000
0.197653 11.155533 0.000000
-0.098185 11.141536 0.000000
-0.424883 11.134424 0.000000
-0.779032 11.131827 0.000000
-1.162031 11.136907 0.000000
-1.571844 11.147314 0.000000
-2.008657 11.166263 0.000000
-2.471598 11.191427 0.000000
-2.959892 11.225414 0.000000
-3.473643 11.266253 0.000000
-4.011574 11.315617 0.000000
-4.574519 11.372142 0.000000
-5.161240 11.436523 0.000000
-5.773011 11.508114 0.000000
-6.409088 11.586867 0.000000
-7.070901 11.672817 0.000000
-7.758433 11.765595 0.000000
-8.473049 11.865763 0.000000
-9.215431 11.973086 0.000000
-9.986894 12.088672 0.000000
-10.789418 12.214100 0.000000
-11.627487 12.355858 0.000000
0.518775 11.895283 0.000000
0.260343 11.866766 0.000000
-0.026914 11.847991 0.000000
-0.345017 11.836945 0.000000
-0.690154 11.830885 0.000000
-1.063803 11.832034 0.000000
-1.463574 11.838448 0.000000
-1.889912 11.852930 0.000000
-2.341502 11.873487 0.000000
-2.817866 11.902548 0.000000
-3.318605 11.938261 0.000000
-3.842706 11.982295 0.000000
-4.390528 12.033173 0.000000
-4.961006 12.091699 0.000000
-5.555066 12.156919 0.000000
-6.172030 12.228933 0.000000
-6.813175 12.307365 0.000000
-7.478458 12.391954 0.000000
-8.169283 12.482866 0.000000
-8.886239 12.579868 0.000000
-9.630678 12.683575 0.000000
-10.403737 12.794288 0.000000
-11.207395 12.914272 0.000000
-12.046133 13.049411 0.000000
0.321675 12.577215 0.000000
0.044062 12.549627 0.000000
-0.264953 12.533078 0.000000
-0.600976 12.523017 0.000000
-0.965316 12.520098 0.000000
-1.355261 12.522538 0.000000
-1.771410 12.532641 0.000000
-2.212090 12.548760 0.000000
-2.677049 12.573105 0.000000
-3.165453 12.604020 0.000000
-3.676492 12.643119 0.000000
-4.210076 12.688911 0.000000
-4.765276 12.742249 0.000000
-5.342644 12.801974 0.000000
-5.941562 12.868266 0.000000
-6.563082 12.940417 0.000000
-7.207164 13.018223 0.000000
-7.875168 13.101483 0.000000
-8.567659 13.189971 0.000000
-9.286081 13.283972 0.000000
-10.031422 13.383548 0.000000
-10.805116 13.489577 0.000000
-11.609040 13.603867 0.000000
-12.447409 13.732585 0.000000
0.113787 13.248927 0.000000
-0.184988 13.222935 0.000000
-0.511454 13.207330 0.000000
-0.866373 13.199814 0.000000
-1.246624 13.198125 0.000000
-1.652821 13.203824 0.000000
-2.082991 13.215556 0.000000
-2.537036 13.235273 0.000000
-3.013757 13.261564 0.000000
-3.512491 13.295953 0.000000
-4.032735 13.337029 0.000000
-4.573655 13.385641 0.000000
-5.135415 13.440527 0.000000
-5.717431 13.501892 0.000000
-6.320484 13.568775 0.000000
-6.944529 13.640981 0.000000
-7.590821 13.717982 0.000000
-8.259919 13.799523 0.000000
-8.953320 13.885578 0.000000
-9.672019 13.976128 0.000000
-10.417491 14.071643 0.000000
-11.190968 14.172694 0.000000
-11.994379 14.281426 0.000000
-12.831669 14.403725 0.000000
-0.106155 13.909105 0.000000
-0.421910 13.884115 0.000000
-0.766930 13.870499 0.000000
-1.137439 13.864138 0.000000
-1.533820 13.865245 0.000000
-1.953804 13.872528 0.000000
-2.397368 13.887596 0.000000
-2.863007 13.909305 0.000000