# vtk DataFile Version 2.0
patchtest_tri3_mix
ASCII
DATASET POLYDATA
POINTS 34 float
0.000000 -0.500000 0.000000
1.000000 -0.500000 0.000000
1.000000 0.500000 0.000000
0.000000 0.500000 0.000000
0.200000 -0.500000 0.000000
0.400000 -0.500000 0.000000
0.600000 -0.500000 0.000000
0.800000 -0.500000 0.000000
1.000000 -0.300000 0.000000
1.000000 -0.100000 0.000000
1.000000 0.100000 0.000000
1.000000 0.300000 0.000000
0.800000 0.500000 0.000000
0.600000 0.500000 0.000000
0.400000 0.500000 0.000000
0.200000 0.500000 0.000000
0.000000 0.300000 0.000000
0.000000 0.100000 0.000000
0.000000 -0.100000 0.000000
0.000000 -0.300000 0.000000
0.440506 -0.108167 0.000000
0.395447 0.100375 0.000000
0.806643 -0.254716 0.000000
0.569535 0.298985 0.000000
0.600108 -0.282532 0.000000
0.396408 -0.313880 0.000000
0.803554 0.010140 0.000000
0.192533 0.142022 0.000000
0.216735 -0.060498 0.000000
0.785391 0.257667 0.000000
0.370176 0.302426 0.000000
0.200942 -0.271983 0.000000
0.604222 0.086897 0.000000
0.180832 0.328644 0.000000
POLYGONS 46 184
3 0 4 19
3 31 18 19
3 19 4 31
3 25 20 31
3 25 31 4
3 31 28 18
3 20 28 31
3 28 20 21
3 25 4 5
3 18 28 17
3 33 16 27
3 3 33 15
3 33 3 16
3 16 17 27
3 27 21 30
3 27 17 28
3 15 30 14
3 15 33 30
3 23 14 30
3 23 30 21
3 30 33 27
3 28 21 27
3 6 25 5
3 6 7 24
3 24 32 20
3 20 25 24
3 24 7 22
3 24 25 6
3 8 22 7
3 26 24 22
3 9 22 8
3 8 7 1
3 26 22 9
3 32 29 23
3 29 32 26
3 13 14 23
3 13 23 29
3 29 12 13
3 23 21 32
3 10 11 29
3 10 26 9
3 12 11 2
3 12 29 11
3 29 26 10
3 32 24 26
3 21 20 32
POINT_DATA 34
SCALARS P float 1
LOOKUP_TABLE default
2360.583969
62.554041
-856.914538
-1092.862613
2920.920906
-782.892153
1360.019645
922.449705
-2237.199760
-2664.287932
-2964.439244
785.038289
-768.969754
-2928.902297
-2235.954807
-2070.414876
2353.947435
2543.831992
1750.970402
3278.593351
1415.445721
4674.710589
2265.590784
146.265581
-1622.367629
4661.820481
3820.398261
-4331.562388
-1861.782832
702.194064
526.762057
-45.722653
-5460.138555
-6507.690933
