# vtk DataFile Version 2.0
cantilever_quad8_mix
ASCII
DATASET POLYDATA
POINTS 1891 float
0.000000 0.000000 0.000000
48.000000 44.000000 0.000000
48.000000 60.000000 0.000000
0.000000 44.000000 0.000000
0.800000 0.733333 0.000000
1.600000 1.466667 0.000000
2.400000 2.200000 0.000000
3.200000 2.933333 0.000000
4.000000 3.666667 0.000000
4.800000 4.400000 0.000000
5.600000 5.133333 0.000000
6.400000 5.866667 0.000000
7.200000 6.600000 0.000000
8.000000 7.333333 0.000000
8.800000 8.066667 0.000000
9.600000 8.800000 0.000000
10.400000 9.533333 0.000000
11.200000 10.266667 0.000000
12.000000 11.000000 0.000000
12.800000 11.733333 0.000000
13.600000 12.466667 0.000000
14.400000 13.200000 0.000000
15.200000 13.933333 0.000000
16.000000 14.666667 0.000000
16.800000 15.400000 0.000000
17.600000 16.133333 0.000000
18.400000 16.866667 0.000000
19.200000 17.600000 0.000000
20.000000 18.333333 0.000000
20.800000 19.066667 0.000000
21.600000 19.800000 0.000000
22.400000 20.533333 0.000000
23.200000 21.266667 0.000000
24.000000 22.000000 0.000000
24.800000 22.733333 0.000000
25.600000 23.466667 0.000000
26.400000 24.200000 0.000000
27.200000 24.933333 0.000000
28.000000 25.666667 0.000000
28.800000 26.400000 0.000000
29.600000 27.133333 0.000000
30.400000 27.866667 0.000000
31.200000 28.600000 0.000000
32.000000 29.333333 0.000000
32.800000 30.066667 0.000000
33.600000 30.800000 0.000000
34.400000 31.533333 0.000000
35.200000 32.266667 0.000000
36.000000 33.000000 0.000000
36.800000 33.733333 0.000000
37.600000 34.466667 0.000000
38.400000 35.200000 0.000000
39.200000 35.933333 0.000000
40.000000 36.666667 0.000000
40.800000 37.400000 0.000000
41.600000 38.133333 0.000000
42.400000 38.866667 0.000000
43.200000 39.600000 0.000000
44.000000 40.333333 0.000000
44.800000 41.066667 0.000000
45.600000 41.800000 0.000000
46.400000 42.533333 0.000000
47.200000 43.266667 0.000000
48.000000 44.533333 0.000000
48.000000 45.066667 0.000000
48.000000 45.600000 0.000000
48.000000 46.133333 0.000000
48.000000 46.666667 0.000000
48.000000 47.200000 0.000000
48.000000 47.733333 0.000000
48.000000 48.266667 0.000000
48.000000 48.800000 0.000000
48.000000 49.333333 0.000000
48.000000 49.866667 0.000000
48.000000 50.400000 0.000000
48.000000 50.933333 0.000000
48.000000 51.466667 0.000000
48.000000 52.000000 0.000000
48.000000 52.533333 0.000000
48.000000 53.066667 0.000000
48.000000 53.600000 0.000000
48.000000 54.133333 0.000000
48.000000 54.666667 0.000000
48.000000 55.200000 0.000000
48.000000 55.733333 0.000000
48.000000 56.266667 0.000000
48.000000 56.800000 0.000000
48.000000 57.333333 0.000000
48.000000 57.866667 0.000000
48.000000 58.400000 0.000000
48.000000 58.933333 0.000000
48.000000 59.466667 0.000000
47.200000 59.733333 0.000000
46.400000 59.466667 0.000000
45.600000 59.200000 0.000000
44.800000 58.933333 0.000000
44.000000 58.666667 0.000000
43.200000 58.400000 0.000000
42.400000 58.133333 0.000000
41.600000 57.866667 0.000000
40.800000 57.600000 0.000000
40.000000 57.333333 0.000000
39.200000 57.066667 0.000000
38.400000 56.800000 0.000000
37.600000 56.533333 0.000000
36.800000 56.266667 0.000000
36.000000 56.000000 0.000000
35.200000 55.733333 0.000000
34.400000 55.466667 0.000000
33.600000 55.200000 0.000000
32.800000 54.933333 0.000000
32.000000 54.666667 0.000000
31.200000 54.400000 0.000000
30.400000 54.133333 0.000000
29.600000 53.866667 0.000000
28.800000 53.600000 0.000000
28.000000 53.333333 0.000000
27.200000 53.066667 0.000000
26.400000 52.800000 0.000000
25.600000 52.533333 0.000000
24.800000 52.266667 0.000000
24.000000 52.000000 0.000000
23.200000 51.733333 0.000000
22.400000 51.466667 0.000000
21.600000 51.200000 0.000000
20.800000 50.933333 0.000000
20.000000 50.666667 0.000000
19.200000 50.400000 0.000000
18.400000 50.133333 0.000000
17.600000 49.866667 0.000000
16.800000 49.600000 0.000000
16.000000 49.333333 0.000000
15.200000 49.066667 0.000000
14.400000 48.800000 0.000000
13.600000 48.533333 0.000000
12.800000 48.266667 0.000000
12.000000 48.000000 0.000000
11.200000 47.733333 0.000000
10.400000 47.466667 0.000000
9.600000 47.200000 0.000000
8.800000 46.933333 0.000000
8.000000 46.666667 0.000000
7.200000 46.400000 0.000000
6.400000 46.133333 0.000000
5.600000 45.866667 0.000000
4.800000 45.600000 0.000000
4.000000 45.333333 0.000000
3.200000 45.066667 0.000000
2.400000 44.800000 0.000000
1.600000 44.533333 0.000000
0.800000 44.266667 0.000000
0.000000 42.533333 0.000000
0.000000 41.066667 0.000000
0.000000 39.600000 0.000000
0.000000 38.133333 0.000000
0.000000 36.666667 0.000000
0.000000 35.200000 0.000000
0.000000 33.733333 0.000000
0.000000 32.266667 0.000000
0.000000 30.800000 0.000000
0.000000 29.333333 0.000000
0.000000 27.866667 0.000000
0.000000 26.400000 0.000000
0.000000 24.933333 0.000000
0.000000 23.466667 0.000000
0.000000 22.000000 0.000000
0.000000 20.533333 0.000000
0.000000 19.066667 0.000000
0.000000 17.600000 0.000000
0.000000 16.133333 0.000000
0.000000 14.666667 0.000000
0.000000 13.200000 0.000000
0.000000 11.733333 0.000000
0.000000 10.266667 0.000000
0.000000 8.800000 0.000000
0.000000 7.333333 0.000000
0.000000 5.866667 0.000000
0.000000 4.400000 0.000000
0.000000 2.933333 0.000000
0.000000 1.466667 0.000000
0.800000 2.184444 0.000000
0.800000 3.635556 0.000000
0.800000 5.086667 0.000000
0.800000 6.537778 0.000000
0.800000 7.988889 0.000000
0.800000 9.440000 0.000000
0.800000 10.891111 0.000000
0.800000 12.342222 0.000000
0.800000 13.793333 0.000000
0.800000 15.244444 0.000000
0.800000 16.695556 0.000000
0.800000 18.146667 0.000000
0.800000 19.597778 0.000000
0.800000 21.048889 0.000000
0.800000 22.500000 0.000000
0.800000 23.951111 0.000000
0.800000 25.402222 0.000000
0.800000 26.853333 0.000000
0.800000 28.304444 0.000000
0.800000 29.755556 0.000000
0.800000 31.206667 0.000000
0.800000 32.657778 0.000000
0.800000 34.108889 0.000000
0.800000 35.560000 0.000000
0.800000 37.011111 0.000000
0.800000 38.462222 0.000000
0.800000 39.913333 0.000000
0.800000 41.364444 0.000000
0.800000 42.815556 0.000000
1.600000 2.902222 0.000000
1.600000 4.337778 0.000000
1.600000 5.773333 0.000000
1.600000 7.208889 0.000000
1.600000 8.644444 0.000000
1.600000 10.080000 0.000000
1.600000 11.515556 0.000000
1.600000 12.951111 0.000000
1.600000 14.386667 0.000000
1.600000 15.822222 0.000000
1.600000 17.257778 0.000000
1.600000 18.693333 0.000000
1.600000 20.128889 0.000000
1.600000 21.564444 0.000000
1.600000 23.000000 0.000000
1.600000 24.435556 0.000000
1.600000 25.871111 0.000000
1.600000 27.306667 0.000000
1.600000 28.742222 0.000000
1.600000 30.177778 0.000000
1.600000 31.613333 0.000000
1.600000 33.048889 0.000000
1.600000 34.484444 0.000000
1.600000 35.920000 0.000000
1.600000 37.355556 0.000000
1.600000 38.791111 0.000000
1.600000 40.226667 0.000000
1.600000 41.662222 0.000000
1.600000 43.097778 0.000000
2.400000 3.620000 0.000000
2.400000 5.040000 0.000000
2.400000 6.460000 0.000000
2.400000 7.880000 0.000000
2.400000 9.300000 0.000000
2.400000 10.720000 0.000000
2.400000 12.140000 0.000000
2.400000 13.560000 0.000000
2.400000 14.980000 0.000000
2.400000 16.400000 0.000000
2.400000 17.820000 0.000000
2.400000 19.240000 0.000000
2.400000 20.660000 0.000000
2.400000 22.080000 0.000000
2.400000 23.500000 0.000000
2.400000 24.920000 0.000000
2.400000 26.340000 0.000000
2.400000 27.760000 0.000000
2.400000 29.180000 0.000000
2.400000 30.600000 0.000000
2.400000 32.020000 0.000000
2.400000 33.440000 0.000000
2.400000 34.860000 0.000000
2.400000 36.280000 0.000000
2.400000 37.700000 0.000000
2.400000 39.120000 0.000000
2.400000 40.540000 0.000000
2.400000 41.960000 0.000000
2.400000 43.380000 0.000000
3.200000 4.337778 0.000000
3.200000 5.742222 0.000000
3.200000 7.146667 0.000000
3.200000 8.551111 0.000000
3.200000 9.955556 0.000000
3.200000 11.360000 0.000000
3.200000 12.764444 0.000000
3.200000 14.168889 0.000000
3.200000 15.573333 0.000000
3.200000 16.977778 0.000000
3.200000 18.382222 0.000000
3.200000 19.786667 0.000000
3.200000 21.191111 0.000000
3.200000 22.595556 0.000000
3.200000 24.000000 0.000000
3.200000 25.404444 0.000000
3.200000 26.808889 0.000000
3.200000 28.213333 0.000000
3.200000 29.617778 0.000000
3.200000 31.022222 0.000000
3.200000 32.426667 0.000000
3.200000 33.831111 0.000000
3.200000 35.235556 0.000000
3.200000 36.640000 0.000000
3.200000 38.044444 0.000000
3.200000 39.448889 0.000000
3.200000 40.853333 0.000000
3.200000 42.257778 0.000000
3.200000 43.662222 0.000000
4.000000 5.055556 0.000000
4.000000 6.444444 0.000000
4.000000 7.833333 0.000000
4.000000 9.222222 0.000000
4.000000 10.611111 0.000000
4.000000 12.000000 0.000000
4.000000 13.388889 0.000000
4.000000 14.777778 0.000000
4.000000 16.166667 0.000000
4.000000 17.555556 0.000000
4.000000 18.944444 0.000000
4.000000 20.333333 0.000000
4.000000 21.722222 0.000000
4.000000 23.111111 0.000000
4.000000 24.500000 0.000000
4.000000 25.888889 0.000000
4.000000 27.277778 0.000000
4.000000 28.666667 0.000000
4.000000 30.055556 0.000000
4.000000 31.444444 0.000000
4.000000 32.833333 0.000000
4.000000 34.222222 0.000000
4.000000 35.611111 0.000000
4.000000 37.000000 0.000000
4.000000 38.388889 0.000000
4.000000 39.777778 0.000000
4.000000 41.166667 0.000000
4.000000 42.555556 0.000000
4.000000 43.944444 0.000000
4.800000 5.773333 0.000000
4.800000 7.146667 0.000000
4.800000 8.520000 0.000000
4.800000 9.893333 0.000000
4.800000 11.266667 0.000000
4.800000 12.640000 0.000000
4.800000 14.013333 0.000000
4.800000 15.386667 0.000000
4.800000 16.760000 0.000000
4.800000 18.133333 0.000000
4.800000 19.506667 0.000000
4.800000 20.880000 0.000000
4.800000 22.253333 0.000000
4.800000 23.626667 0.000000
4.800000 25.000000 0.000000
4.800000 26.373333 0.000000
4.800000 27.746667 0.000000
4.800000 29.120000 0.000000
4.800000 30.493333 0.000000
4.800000 31.866667 0.000000
4.800000 33.240000 0.000000
4.800000 34.613333 0.000000
4.800000 35.986667 0.000000
4.800000 37.360000 0.000000
4.800000 38.733333 0.000000
4.800000 40.106667 0.000000
[...]
POINT_DATA 1891
SCALARS P float 1
LOOKUP_TABLE default
-16.969376
-346.826768
9.584107
-163.643406
-23.094347
-17.425144
-28.165742
-21.624886
-29.064163
-27.206458
-28.989054
-31.545575
-30.351687
-33.286233
-33.353650
-33.472696
-36.308990
-34.044989
-37.899713
-35.573567
-38.619356
-37.092630
-39.653499
-37.984163
-41.127852
-38.880473
-42.451098
-40.380984
-43.735016
-42.243116
-45.527049
-44.373852
-47.813883
-47.142388
-50.521460
-50.606232
-53.930729
-54.752885
-58.147475
-59.818213
-63.271674
-65.961039
-69.570917
-73.414397
-77.332105
-82.530199
-87.017263
-93.790622
-99.142630
-107.933623
-114.671130
-125.875307
-134.474259
-148.974801
-160.938911
-179.580150
-194.773973
-217.499648
-239.163922
-272.670918
-305.285815
-342.672930
-379.883695
667.433031
-822.456837
905.817498
-938.045087
971.711839
-976.819193
1004.045225
-998.153646
1021.663156
-1002.627693
1016.762775
-979.670684
978.890541
-920.687637
902.422908
-823.557391
789.034850
-693.592752
647.408105
-542.219392
491.062600
-384.217903
335.254672
-234.606721
193.834596
-105.854138
76.442054
-8.726260
-1.779699
-38.096187
-114.119934
-136.741707
-146.466636
-158.042862
-147.566345
-154.858659
-145.611248
-153.897340
-147.109129
-154.786089
-148.224426
-153.621388
-146.334789
-149.630901
-142.119281
-144.211377
-137.053008
-138.446008
-131.833959
-132.595973
-126.592030
-126.890177
-121.376061
-121.476048
-116.456352
-116.149808
-112.053454
-111.054781
-107.781885
-106.720584
-103.420425
-102.860635
-99.774446
-98.575451
-97.293541
-94.295127
-94.708822
-91.533485
-91.104950
-89.843584
-88.253365
-86.685144
-87.991435
-81.903901
-88.165538
-79.016191
-85.454978
-79.067589
-82.049531
-77.021559
-83.768350
-68.991083
-90.862742
-58.940179
-98.222711
-52.545903
-107.088815
-53.700971
39.405139
-111.184812
48.152523
-81.927535
47.241179
-68.212310
53.642662
-55.461369
54.637665
-47.719070
56.970414
-40.471711
56.855248
-35.936304
56.039208
-32.276030
53.949368
-29.839659
50.942279
-28.668124
46.708276
-27.290992
43.266012
-26.304710
37.406228
-25.770040
35.074520
-18.529037
33.950926
28.884381
-25.864102
36.676720
-24.491840
38.436120
-29.579377
38.734566
-31.650174
40.866413
-34.925172
41.154077
-38.334462
42.195034
-41.659247
43.183123
-44.612766
44.224019
-48.287542
45.836964
-49.544626
47.931459
-53.757282
49.621364
-51.303389
53.611641
-56.737311
54.124174
-43.066280
53.668754
38.449222
-24.063105
36.043979
-28.041393
41.761165
-26.802721
46.122609
-28.689424
49.833331
-28.979293
53.945573
-30.676686
56.566371
-33.317239
57.977557
-37.605034
58.759402
-42.883315
56.772764
-51.882727
55.280757
-59.807798
49.566823
-76.778721
46.158590
-87.821626
34.809267
-120.864602
37.975058
33.985361
-25.822339
40.114192
-28.402930
39.156307
-32.308493
41.140425
-34.190189
41.903420
-38.001407
42.574668
-41.047567
43.504087
-44.258745
44.946454
-47.413784
45.878571
-50.164701
49.294657
-52.132661
50.042094
-54.753665
56.907283
-53.651613
56.309054
-55.696639
70.305958
-48.134088
55.128492
38.219851
-29.019461
39.238328
-28.428895
45.167769
-29.057016
47.870930
-30.307993
52.122622
-31.045967
55.101960
-33.271029
57.352607
-36.668049
58.255916
-40.965297
58.615614
-48.005220
55.902857
-55.483855
55.026714
-66.919690
46.850352
-78.564868
46.164179
-95.838489
28.273677
-102.400325
42.495305
39.506591
-27.711939
41.134393
-32.444675
41.166280
-34.237458
43.179358
-37.251712
43.330683
-40.493825
44.399387
-43.619279
45.450882
-46.460932
46.881753
-49.898200
48.796113
-51.274379
51.972201
-54.944060
54.286248
-53.415372
60.810579
-57.162540
62.230057
-47.627274
70.928637
-56.958539
59.539595
38.757410
-31.088812
43.589445
-29.640150
47.221110
-31.474908
50.266848
-31.847454
53.955706
-33.547518
56.369061
-36.025933
57.966252
-39.997891
58.890764
-44.688720
57.800280
-52.613215
56.337516
-59.202832
52.390415
-72.721625
47.447122
-79.290330
39.336579
-98.865197
35.654384
-91.890725
44.003631
42.878796
-31.641741
42.014674
-35.070350
43.949046
-36.596296
44.698016
-40.095276
45.361898
-42.860407
46.321609
-45.924080
47.779218
-48.756190
49.013438
-51.487196
52.298879
-52.947022
53.977348
-55.545585
59.797349
-53.303035
61.230145
-55.420742
70.785632
-48.469141
65.885135
-61.803926
62.755262
41.852858
-31.744171
47.116543
-32.130947
49.209161
-33.269180
52.924454
-33.961821
55.532324
-36.065328
57.702287
-39.084770
58.685086
-43.065566
59.305284
-48.962811
57.180785
-55.757616
56.401910
-64.246790
49.470707
-74.270349
47.982010
-84.507899
35.738644
-93.824623
44.651241
-89.525130
48.066812
44.192568
-35.583281
44.351024
-36.887412
46.371777
-39.536985
46.549562
-42.424574
47.634694
-45.291816
48.590266
-47.931800
50.107159
-50.931115
51.835043
-52.323903
55.088243
-54.860622
57.016509
-53.937586
63.290437
-55.317157
64.473429
-51.174884
73.857526
-56.393798
63.917304
-63.857972
61.272827
46.396191
-33.165315
49.479302
-34.737498
52.019502
-34.942598
55.206221
-36.505656
57.314840
-38.648900
58.871974
-42.177696
59.681820
-46.227342
59.083429
-52.909361
57.439644
-58.484307
54.672255
-69.082439
49.514916
-75.169207
45.620822
-89.330085
40.076309
-87.125041
48.803591
-88.567748
55.452675
45.595840
-38.121645
47.655382
-39.201598
48.388207
-42.277091
49.086762
-44.681429
49.943465
-47.505287
51.230375
-49.932196
52.448516
-52.398238
55.141466
-53.364665
57.118706
-55.530512
61.521126
-53.441764
64.664586
-55.967278
70.561525
-51.066048
70.831442
-63.189958
65.918043
-68.527775
58.620226
50.322277
-35.840119
51.951624
-36.674422
55.173305
-37.208112
57.305640
-39.008921
59.230412
-41.532592
60.057727
-45.027250
60.581878
-49.811119
58.840305
-55.824379
57.900982
-62.426727
52.808732
-71.700889
51.004375
-78.704001
43.489465
-88.784683
48.031611
-84.907893
51.263884
-85.142602
60.789146
48.662241
-39.924793
50.702279
-42.144925
50.870303
-44.550600
51.860200
-47.094391
52.581778
-49.424913
53.909318
-51.913533
55.281491
-53.250408
58.153511
-54.946268
59.940852
-54.927758
65.478898
-55.172783
66.937589
-54.579208
74.516836
-56.732116
67.947680
-66.106365
66.918317
-75.320547
60.006442
53.190316
-38.579219
55.369074
-38.536533
57.991397
-39.870528
59.710020
-41.571662
61.004466
-44.537662
61.534280
-47.953624
61.102645
-53.456555
59.457649
-58.519996
57.585912
-66.923704
53.024162
-73.178922
51.211939
-83.174484
45.913590
-84.936327
53.521131
-85.740740
56.225777
-82.460252
61.767563
52.814604
-42.350956
53.460281
-44.899706
54.086267
-46.886857
54.676602
-49.370223
55.649420
-51.413265
56.658329
-53.547463
58.731698
-54.393549
60.817815
-56.215507
64.128487
-54.939700
67.913726
-57.108223
71.342457
-54.727306
74.085417
-63.589222
68.745618
-68.898745
65.580749
-79.718668
64.396784
56.285391
-40.663625
59.143919
-41.052812
60.747564
-42.481148
62.307976
-44.521913
62.865692
-47.476949
63.150953
-51.416158
61.766748
-56.693216
60.684981
-62.177005
57.146833
-70.340717
55.003987
-75.921598
50.896109
-84.955656
52.166804
-82.919360
56.318318
-85.502444
62.227819
-83.802324
62.275123
56.707796
-45.458998
56.809000
-47.310905
57.519357
-49.512442
57.919241
-51.514922
58.904926
-53.615703
59.975100
-54.957311
62.326747
-56.241299
64.074463
-56.852524
68.479444
-56.780197
70.356022
-57.950507
75.513688
-58.839374
72.383807
-67.964943
70.932502
-74.059368
65.424461
-81.042237
67.401391
60.430804
-42.842396
62.640867
-43.976476
63.950045
-45.293146
64.879649
-47.762679
65.163952
-50.703423
64.743867
-55.258694
63.253825
-59.923809
61.785645
-66.627239
58.120045
-72.784717
56.919499
-79.901119
52.985883
-83.934153
58.209025
-84.023924
59.906506
-84.213948
65.943075
-87.250974
65.576358
60.336826
-48.427820
60.914853
-50.027219
61.098330
-52.164443
61.717496
-53.971449
62.448227
-55.842893
64.012701
-56.792237
65.935901
-58.313805
68.472994
-57.925341
72.016883
-59.565709
74.205124
-59.306634
77.286490
-65.111259
72.959753
-71.071694
71.871870
-79.591623
68.447790
-82.839799
68.432423
64.985025
-45.881783
66.313961
-46.988989
67.460581
-48.705373
67.757692
-51.212820
67.808227
-54.599491
66.684388
-59.159640
65.508687
-63.952805
62.980530
-70.798681
60.778138
-75.808223
58.561503
-83.019998
58.206508
-83.246477
62.355489
-85.794994
65.369676
-84.799739
67.819448
-89.533166
70.140204
64.659771
-51.327842
65.280693
-53.262173
65.317714
-55.000024
65.887382
-56.874747
66.691625
-58.232067
68.478731
-59.405709
70.115328
-60.323253
73.405437
-60.478684
75.430777
-62.194414
78.632589
-63.191609
77.758887
-70.654120
75.691257
-75.537266
72.574063
-83.333157
72.633425
-87.048425
70.438031
69.397466
-49.501438
70.692239
-50.554353
71.187820
-52.640338
71.262191
-55.245265
70.747884
-59.090610
69.447516
-63.344546
68.093947
-68.851095
65.288903
-74.495540
64.101413
-79.958124
61.597615
-84.522165
64.471086
-84.880763
66.356579
-86.862997
70.772105
-88.051460
70.787128
-90.899522
73.563597
69.814237
-54.958162
70.056282
-56.818479
70.265022
-58.491466
70.637492
-60.154182
71.745997
-61.257934
73.310868
-62.598844
75.307427
-62.895247
78.165179
-64.262704
79.826205
-65.273227
82.173417
-69.264634
79.442706
-75.218922
78.624187
-81.428212
75.273196
-86.348625
75.900294
-92.073716
74.686371
74.248300
-53.531677
75.585079
-55.052248
75.575255
-57.169597
75.340949
-60.150867
74.322810
-64.065540
73.103541
-68.360760
71.122576
-74.013143
69.137592
-78.651230
67.707365
-84.232872
66.992286
-86.013631
70.120720
-88.015100
71.863162
-88.576660
75.035168
-92.086424
75.801554
-93.679516
76.510361
75.327759
-59.438262
75.782479
-61.026516
75.850754
-62.725294
76.318795
-64.055222
77.519559
-65.226997
78.887204
-66.259267
81.267337
-66.832780
83.080252
-68.594654
85.068371
-70.145074
85.075437
-75.797997
83.109313
-80.469876
81.443537
-87.196431
80.017177
-90.817589
79.041257
-96.395860
79.646931
79.992094
-58.572212
81.048756
-60.388963
80.848626
-62.697526
80.124875
-65.954171
78.889252
-69.738064
77.507532
-74.388172
75.313473
-79.298094
74.063988
-83.852111
72.498628
-88.009348
73.871645
-89.143174
75.715650
-91.415815
78.404610
-92.338872
79.463839
-95.740125
81.436041
-98.408080
80.926572
81.472691
-64.620698
82.444407
-66.302406
82.408150
-67.779404
83.018556
-68.949842
84.089406
-70.167491
85.580719
-70.858666
87.627940
-72.184064
88.938650
-73.757609
90.394536
-76.985312
88.866127
-82.209761
87.837160
-87.184590
85.466907
-92.583584
85.344609
-96.990538
83.793219
-100.896649
84.326992
86.402621
-64.895838
87.585077
-66.806893
87.018750
-69.411513
85.939812
-72.739124
84.623039
-76.530821
82.840613
-81.171763
81.091502
-85.337473
79.881606
-89.744484
79.253383
-92.128549
81.166435
-93.940856
82.494183
-95.414430
85.014121
-97.739858
85.506306
-99.972232
86.902190
-103.804285
86.965961
88.729685
-70.984300
90.109407
-72.690558
90.198913
-73.980855
90.828983
-75.128602
91.767460
-76.148131
93.355439
-77.023790
94.677413
-78.685361
95.875836
-80.616526
95.926397
-84.967808
94.407582
-89.372598
93.158297
-94.773481
91.413864
-98.824747
90.860831
-103.759692
90.252852
-106.980967
89.729873
93.681548
-72.464870
95.338883
-74.697193
94.392064
-77.454666
93.083880
-80.734908
91.583615
-84.662257
89.685340
-88.762826
88.346471
-92.624008
87.176217
-96.090423
87.716015
-97.752921
89.044840
-99.789873
90.672080
-101.035632
92.012558
-103.834792
93.042232
-105.931381
93.173530
-109.422445
93.616218
97.058906
-78.878246
99.236817
-80.473322
99.372723
-81.643614
99.929599
-82.765879
100.892301
-83.626620
102.140220
-84.926960
102.993585
-86.622385
103.654448
-89.465812
102.636482
-93.745375
101.480382
-98.042008
99.726714
-102.894434
98.816702
-106.769834
97.560850
-110.944082
97.538882
-114.570725
96.828806
102.293542
-81.717158
104.517935
-84.248251
103.303625
-87.061619
101.844660
-90.338687
100.076371
-94.114675
98.417390
-97.674916
97.161289
-101.163476
96.521119
-103.482835
97.409672
-105.213899
98.314152
-106.803982
99.874081
-108.537712
100.438175
-110.781929
101.444011
-113.486196
101.215564
-116.207547
100.895569
106.700400
-88.448960
110.093211
-90.064882
110.232559
-91.150047
110.685924
-92.109592
111.566163
-93.118635
112.296309
-94.630330
112.824573
-96.613149
112.534607
-100.035808
111.242324
-103.851063
109.921895
-108.215108
108.232346
-112.174402
107.325132
-116.222305
106.172157
-119.485465
105.704796
-123.059491
105.347949
112.371773
-93.054467
115.627391
-95.833821
114.171685
-98.581652
112.483495
-101.829623
110.659922
-105.167494
109.185391
-108.341145
108.033320
-111.066810
107.958785
-112.761653
108.535313
-114.412385
109.387880
-115.670108
110.281376
-117.626883
110.746964
-119.427380
110.981663
-122.173170
110.894061
-124.802068
109.684349
118.112599
-100.222863
123.080507
-101.906516
123.141791
-102.862322
123.519473
-103.731602
124.034675
-104.931778
124.330684
-106.524182
124.289788
-108.976043
123.259377
-112.333234
121.918423
-115.927101
120.209012
-119.891348
118.771210
-123.375952
117.423682
-127.014022
116.566432
-129.988332
115.612910
-132.763674
114.977083
124.302600
-106.865228
129.170288
-109.914383
127.504514
-112.566434
125.566379
-115.508390
123.785604
-118.363763
122.332309
-121.029475
121.462241
-122.939797
121.479549
-124.383683
121.725841
-125.609295
122.360934
-126.830307
122.612575
-128.425457
122.887835
-130.185260
122.461974
-132.337262
121.990813
-134.993767
120.264086
131.617477
-114.779833
138.805604
-116.657020
138.741826
-117.367717
138.823432
-118.222286
138.850936
-119.464075
138.681860
-121.214247
137.893694
-123.838352
136.479000
-126.861358
134.847996
-130.286085
132.964115
-133.600635
131.399807
-136.797288
129.790200
-139.650334
128.695848
-142.367466
127.671414
-144.411765
126.188970
138.647938
-123.852566
145.930310
-127.212295
143.959855
-129.573777
141.828204
-132.007195
139.983737
-134.328734
138.511956
-136.233230
137.761059
-137.540605
137.492213
-138.645122
137.529829
-139.436531
137.615188
-140.452847
137.435693
-141.517950
137.083318
-143.057036
136.281412
-144.671118
135.007927
-146.798492
132.441269
147.789994
-132.915404
158.067613
-135.094214
157.785683
-135.564375
157.344213
-136.293989
156.779670
-137.415396
155.894362
-139.216313
154.449562
-141.623985
152.715125
-144.336644
150.614637
-147.271620
148.544381
-149.993815
146.553719
-152.635100
144.762480
-154.792904
143.103276
-156.745994
141.838032
-158.196361
139.403475
156.055019
-144.883616
166.881870
-148.730780
164.627389
-150.524505
162.173609
-152.236197
160.040957
-153.776995
158.474495
-154.880882
157.497323
-155.650944
156.791717
-156.091816
156.386451
-156.441522
155.827316
-156.907617
155.115921
-157.460671
153.957412
-158.313010
152.532510
-159.435167
150.499895
-160.721864
146.373871
167.363324
-155.731351
182.098863
-158.492307
181.362965
-158.539674
180.117009
-158.888782
178.760091
-159.797336
177.040068
-161.307941
174.941053
-163.150375
172.554062
-165.384921
169.948958
-167.584570
167.401729
-169.622826
164.865368
-171.363713
162.577574
-172.771577
160.359333
-173.686129
158.390477
-174.136765
154.548189
177.487943
-171.328105
193.502818
-175.805770
190.848025
-176.706243
187.834327
-177.488853
185.270845
-177.997921
183.234796
-178.144220
181.561562
-178.057229
180.293764
-177.638706
179.084665
-177.222591
177.726211
-176.836606
176.131490
-176.639451
174.086231
-176.532915
171.585758
-176.742471
168.602495
-177.022391
162.290032
191.432483
-184.751878
212.476183
-188.523663
211.111590
-187.939865
208.817660
-187.631176
206.276855
-187.850076
203.435547
-188.522718
200.435916
-189.610875
197.050703
-190.903435
193.652043
-192.114415
190.283951
-193.113309
186.972358
-193.658112
183.727535
-193.828941
180.669023
-193.532678
177.750654
-192.538908
171.636780
204.111981
-204.909439
227.876153
-210.616093
224.831709
-210.311853
220.815091
-209.572466
217.229146
-208.602718
214.142303
-207.510176
211.444446
-205.993404
209.137562
-204.399738
206.798587
-202.749911
204.208778
-201.045691
201.177064
-199.450921
197.767902
-198.059043
193.889448
-196.949965
189.550130
-195.836718
180.208990
221.383761
-222.288962
251.864009
-227.956928
249.660782
-226.132966
245.550954
-224.441683
241.273387
-223.335789
236.981929
-222.625474
232.401361
-222.510347
227.713580
-222.340038
222.904492
-221.875318
218.019716
-221.057235
213.287539
-219.942844
208.750493
-218.488905
204.459903
-216.653855
200.301260
-213.755332
190.686819
237.872675
-248.524067
273.213085
-256.257199
269.355183
-253.932359
263.584225
-251.054883
258.340475
-248.160122
253.478668
-245.041186
249.346323
-241.514407
245.088502
-237.685879
240.586015
-233.782260
235.901971
-230.109949
231.019623
-226.718096
225.827311
-223.600923
220.136642
-220.634030
213.705572
-217.135540
199.537087
259.337804
-271.410138
303.530551
-280.015777
300.197620
-276.388154
293.698051
-272.631786
287.075898
-269.188539
280.428710
-266.442710
273.123817
-263.522497
265.671921
-260.557975
258.446218
-257.668770
251.651457
-254.716528
245.169444
-251.475309
238.793474
-247.680022
232.338219
-243.200474
225.707403
-237.013451
210.338831
280.786199
-305.295741
333.305752
-317.058542
329.059326
-312.429157
320.807532
-306.435972
312.442811
-300.282226
304.554350
-292.963259
296.720674
-285.689823
289.295882
-278.847308
282.250477
-272.443071
275.162437
-266.209799
267.593180
-259.889970
259.224088
-253.415210
249.989127
-246.882263
239.745660
-239.159873
218.010287
307.568299
-336.377103
373.135506
-351.108917
369.176670
-344.713170
358.566433
-336.541470
347.520615
-328.450662
335.301421
-321.090857
324.007585
-314.689691
313.653248
-308.837331
303.823751
-302.811936
293.984836
-296.083841
283.792762
-288.457152
273.230806
-280.036088
262.461891
-270.971540
251.508247
-259.662786
227.736421
336.813391
-381.984559
416.165929
-401.012416
410.899056
-391.583023
396.926878
-379.626457
382.297989
-366.524507
369.714200
-354.992052
358.504207
-344.164337
347.663537
-333.234915
336.192356
-321.686312
323.593241
-309.460807
309.877921
-296.892606
295.341443
-284.439209
280.314002
-272.511525
264.703655
-259.129655
233.181817
371.660488
-424.975261
468.518473
-447.984123
461.904936
-435.411988
444.183842
-419.357375
425.664191
-406.863013
409.530033
-395.419267
393.780748
-383.620082
377.436602
-370.598074
360.220889
-356.316190
342.438396
-341.265406
324.660217
-326.059457
307.419692
-311.207450
291.113023
-296.939064
275.494361
-280.229414
242.107321
410.083156
-483.705028
526.803849
-513.099137
520.233961
-497.910190
498.502665
-479.117380
480.815531
-461.513432
462.615867
-442.430721
442.880697
-421.381802
421.266730
-398.838627
398.320180
-375.831158
374.976604
-353.457088
352.080868
-332.571899
330.202930
-313.729743
309.570230
-297.089577
289.409898
-278.688355
247.448360
452.469643
-540.178381
595.686115
-580.365751
591.139491
-562.776366
568.522238
-543.862556
542.561261
-520.138292
512.959222
-493.318181
481.063954
-464.580222
448.542334
-435.605414
417.140156
-408.009436
388.197581
-382.905416
362.448058
-360.803685
340.030032
-341.648539
320.597413
-324.795708
302.585088
-304.232962
258.940661
502.903556
-620.128062
682.880493
-676.646415
682.532914
-661.565781
657.587043
-628.138772
619.418401
-587.100899
577.570909
-543.845884
535.376067
-501.553634
495.190151
-462.474625
458.517964
-427.814210
425.897744
-397.838288
397.097173
-372.183483
371.423202
-350.217293
347.963719
-331.032062
324.367536
-307.242287
268.439852
563.564425
-708.794588
789.098175
-785.389454
797.332466
-762.628281
747.095230
-706.840166
683.907310
-647.169992
621.474832
-590.499226
564.305163
-539.758110
514.375046
-496.147659
472.144982
-459.667465
437.089853
-429.585115
408.157805
-404.827667
384.085734
-384.168149
363.413657
-365.763257
342.510720
-338.788141
281.902896
641.809843
-828.087561
923.656880
-932.524289
922.588115
-873.112702
841.190267
-786.222602
756.802375
-704.614124
682.444099
-634.668759
620.489202
-577.384500
570.427543
-531.681886
530.394167
-495.414535
497.800745
-465.890446
469.697224
-440.221136
443.026516
-415.597008
414.729706
-389.010113
379.342563
-347.391313
291.417998
723.327659
-951.122111
1066.999986
-1051.736554
1019.736105
-954.260536
905.892362
-846.568143
802.949308
-756.807068
720.526637
-686.723020
656.885834
-632.898876