# vtk DataFile Version 2.0
cantilever_quad8_mix
ASCII
DATASET POLYDATA
POINTS 260 float
0.000000 -6.000000 0.000000
48.000000 -6.000000 0.000000
48.000000 6.000000 0.000000
0.000000 6.000000 0.000000
1.500000 -6.000000 0.000000
3.000000 -6.000000 0.000000
4.500000 -6.000000 0.000000
6.000000 -6.000000 0.000000
7.500000 -6.000000 0.000000
9.000000 -6.000000 0.000000
10.500000 -6.000000 0.000000
12.000000 -6.000000 0.000000
13.500000 -6.000000 0.000000
15.000000 -6.000000 0.000000
16.500000 -6.000000 0.000000
18.000000 -6.000000 0.000000
19.500000 -6.000000 0.000000
21.000000 -6.000000 0.000000
22.500000 -6.000000 0.000000
24.000000 -6.000000 0.000000
25.500000 -6.000000 0.000000
27.000000 -6.000000 0.000000
28.500000 -6.000000 0.000000
30.000000 -6.000000 0.000000
31.500000 -6.000000 0.000000
33.000000 -6.000000 0.000000
34.500000 -6.000000 0.000000
36.000000 -6.000000 0.000000
37.500000 -6.000000 0.000000
39.000000 -6.000000 0.000000
40.500000 -6.000000 0.000000
42.000000 -6.000000 0.000000
43.500000 -6.000000 0.000000
45.000000 -6.000000 0.000000
46.500000 -6.000000 0.000000
48.000000 -4.500000 0.000000
48.000000 -3.000000 0.000000
48.000000 -1.500000 0.000000
48.000000 -0.000000 0.000000
48.000000 1.500000 0.000000
48.000000 3.000000 0.000000
48.000000 4.500000 0.000000
46.500000 6.000000 0.000000
45.000000 6.000000 0.000000
43.500000 6.000000 0.000000
42.000000 6.000000 0.000000
40.500000 6.000000 0.000000
39.000000 6.000000 0.000000
37.500000 6.000000 0.000000
36.000000 6.000000 0.000000
34.500000 6.000000 0.000000
33.000000 6.000000 0.000000
31.500000 6.000000 0.000000
30.000000 6.000000 0.000000
28.500000 6.000000 0.000000
27.000000 6.000000 0.000000
25.500000 6.000000 0.000000
24.000000 6.000000 0.000000
22.500000 6.000000 0.000000
21.000000 6.000000 0.000000
19.500000 6.000000 0.000000
18.000000 6.000000 0.000000
16.500000 6.000000 0.000000
15.000000 6.000000 0.000000
13.500000 6.000000 0.000000
12.000000 6.000000 0.000000
10.500000 6.000000 0.000000
9.000000 6.000000 0.000000
7.500000 6.000000 0.000000
6.000000 6.000000 0.000000
4.500000 6.000000 0.000000
3.000000 6.000000 0.000000
1.500000 6.000000 0.000000
0.000000 4.500000 0.000000
0.000000 3.000000 0.000000
0.000000 1.500000 0.000000
0.000000 0.000000 0.000000
0.000000 -1.500000 0.000000
0.000000 -3.000000 0.000000
0.000000 -4.500000 0.000000
12.096572 -3.006515 0.000000
27.621693 4.373074 0.000000
46.151734 -2.610322 0.000000
1.544665 -4.450165 0.000000
24.977610 2.670697 0.000000
4.640239 -4.437322 0.000000
40.546698 1.358310 0.000000
30.588876 0.034345 0.000000
21.699539 -4.296777 0.000000
6.148994 0.066068 0.000000
23.406471 -4.272963 0.000000
27.640234 1.182125 0.000000
44.174462 -2.897532 0.000000
33.169339 4.451712 0.000000
30.930257 -2.893469 0.000000
26.794186 -0.533589 0.000000
39.944268 -0.166023 0.000000
12.586567 -1.500094 0.000000
31.495640 -4.443772 0.000000
38.617703 4.432515 0.000000
40.302553 4.451529 0.000000
16.284942 -1.319964 0.000000
6.362986 -4.493615 0.000000
1.538341 1.539058 0.000000
42.007257 -3.062880 0.000000
6.848542 4.452229 0.000000
21.540913 2.505598 0.000000
43.405635 -0.259575 0.000000
8.648522 1.539685 0.000000
26.733394 2.744928 0.000000
15.203686 0.044197 0.000000
34.172907 2.961244 0.000000
3.351332 -2.792967 0.000000
7.753900 -1.420218 0.000000
29.515502 1.375651 0.000000
38.820722 1.369707 0.000000
36.857275 4.439433 0.000000
37.018631 1.413856 0.000000
7.847018 0.072771 0.000000
41.921102 4.461130 0.000000
10.512828 1.467883 0.000000
22.440857 0.849034 0.000000
46.432129 1.169717 0.000000
9.879260 -4.452889 0.000000
4.412042 2.932997 0.000000
6.062524 2.964241 0.000000
38.079002 -0.079469 0.000000
15.533165 -2.866280 0.000000
28.533369 2.814875 0.000000
20.666802 4.141917 0.000000
46.436942 4.434422 0.000000
13.290994 -0.067928 0.000000
42.197508 1.386721 0.000000
24.084750 4.334273 0.000000
9.612990 0.058513 0.000000
46.465335 2.839278 0.000000
25.882025 1.047722 0.000000
29.456163 4.406007 0.000000
36.245337 -2.920325 0.000000
46.439855 -0.753123 0.000000
35.267099 -1.414519 0.000000
46.426287 -4.310874 0.000000
12.362059 1.447834 0.000000
5.029860 4.457638 0.000000
8.107066 -4.458210 0.000000
39.047311 -1.567074 0.000000
32.285560 2.958339 0.000000
24.252339 -2.466852 0.000000
28.276534 -4.486797 0.000000
8.677803 4.466931 0.000000
41.117111 -4.441624 0.000000
1.619890 0.006115 0.000000
33.445450 -1.377052 0.000000
32.693921 -2.902458 0.000000
35.024784 4.433862 0.000000
43.058870 -4.365733 0.000000
1.633354 4.500976 0.000000
23.348075 -0.813308 0.000000
30.394070 2.909232 0.000000
16.606853 -4.402901 0.000000
15.608698 4.437030 0.000000
26.551985 -4.444227 0.000000
44.848410 -4.400693 0.000000
13.171519 2.945222 0.000000
36.074600 -4.441952 0.000000
37.888369 2.904776 0.000000
43.492585 4.475941 0.000000
14.898180 2.904101 0.000000
29.811691 -1.440686 0.000000
24.153634 0.941922 0.000000
15.986378 1.518561 0.000000
3.207244 0.967301 0.000000
29.165962 -2.944931 0.000000
1.562371 3.092521 0.000000
16.688874 3.017193 0.000000
19.909345 -1.009372 0.000000
36.057083 2.942534 0.000000
36.185597 0.005497 0.000000
44.923125 2.491775 0.000000
4.630139 -1.677306 0.000000
18.281428 -4.369982 0.000000
14.421039 -1.412702 0.000000
13.789639 -2.924586 0.000000
6.171299 -1.437011 0.000000
20.728187 0.729006 0.000000
20.822243 -2.632141 0.000000
37.625353 -4.464599 0.000000
3.105328 -4.412659 0.000000
39.294683 -4.441190 0.000000
1.695593 -2.972839 0.000000
11.604138 -4.488200 0.000000
27.957234 -1.654837 0.000000
10.926422 -1.411156 0.000000
45.099748 0.462130 0.000000
10.469367 -2.940863 0.000000
4.953220 1.484928 0.000000
43.741400 1.308709 0.000000
1.519335 -1.600917 0.000000
19.174229 4.471104 0.000000
34.319247 0.094410 0.000000
25.065526 -0.701960 0.000000
13.865485 4.457416 0.000000
31.636251 -1.386001 0.000000
34.450260 -2.918689 0.000000
42.882389 -1.763032 0.000000
4.518581 -0.130327 0.000000
25.067236 -4.118073 0.000000
34.568618 -4.439340 0.000000
8.767155 -2.965843 0.000000
17.092332 0.193123 0.000000
5.258386 -3.070170 0.000000
43.221157 2.953280 0.000000
40.030744 -2.985948 0.000000
14.941821 -4.449287 0.000000
23.249913 2.610081 0.000000
19.075987 -2.705440 0.000000
9.632840 2.956843 0.000000
27.353631 -3.082873 0.000000
21.639152 -0.911881 0.000000
17.400301 4.486271 0.000000
18.154941 -1.126772 0.000000
7.832811 2.994391 0.000000
3.262061 4.376835 0.000000
9.319087 -1.432542 0.000000
3.020343 -1.000623 0.000000
37.143585 -1.462065 0.000000
38.092640 -2.956587 0.000000
19.821605 2.332757 0.000000
35.179314 1.507529 0.000000
13.292199 -4.477505 0.000000
22.363105 4.301438 0.000000
44.943513 4.230327 0.000000
18.994210 0.574107 0.000000
3.021072 2.622332 0.000000
19.983016 -4.325246 0.000000
10.423560 4.474341 0.000000
11.463928 0.037925 0.000000
11.409616 2.933881 0.000000
17.834557 1.693217 0.000000
41.752467 -0.173031 0.000000
6.804964 1.552828 0.000000
39.701216 2.906537 0.000000
28.689773 -0.140149 0.000000
22.554936 -2.582988 0.000000
12.138741 4.469773 0.000000
33.048750 -4.444754 0.000000
41.475609 2.925161 0.000000
31.317529 4.437977 0.000000
31.408150 1.505788 0.000000
32.452412 0.104074 0.000000
44.786281 -1.303952 0.000000
29.908942 -4.461953 0.000000
25.828065 4.353699 0.000000
40.998652 -1.639291 0.000000
25.979214 -2.320763 0.000000
18.487986 3.107575 0.000000
17.321032 -2.767823 0.000000
33.299364 1.534358 0.000000
7.007512 -2.961281 0.000000
14.133463 1.388943 0.000000
POLYGONS 438 1752
3 0 4 79
3 5 6 187
3 4 5 83
3 78 79 83
3 79 4 83
3 112 187 85
3 187 83 5
3 85 187 6
3 189 83 187
3 6 7 85
3 7 8 102
3 9 10 123
3 8 9 144
3 258 210 102
3 210 85 102
3 258 102 144
3 144 102 8
3 9 123 144
3 208 144 123
3 123 190 194
3 102 85 7
3 85 210 112
3 78 197 77
3 197 78 189
3 189 112 197
3 189 187 112
3 83 189 78
3 197 112 224
3 76 77 151
3 171 151 224
3 151 77 197
3 197 224 151
3 76 151 103
3 112 179 224
3 179 210 183
3 179 112 210
3 113 258 208
3 194 208 123
3 210 258 183
3 223 208 194
3 89 205 183
3 183 205 179
3 89 183 113
3 113 183 258
3 208 223 113
3 223 118 113
3 194 192 223
3 179 205 224
3 144 208 258
3 205 171 224
3 123 10 190
3 11 12 229
3 13 14 213
3 12 13 213
3 80 190 229
3 229 190 11
3 229 213 182
3 159 213 14
3 229 12 213
3 213 159 127
3 14 15 159
3 11 190 10
3 15 16 180
3 17 18 88
3 16 17 234
3 159 180 256
3 180 16 234
3 90 18 19
3 88 234 17
3 18 90 88
3 234 88 185
3 15 180 159
3 234 215 180
3 80 97 192
3 97 80 182
3 97 182 181
3 127 182 213
3 80 229 182
3 181 182 127
3 223 192 134
3 236 192 97
3 131 181 110
3 101 181 127
3 97 181 131
3 101 110 181
3 127 256 101
3 192 194 80
3 220 256 215
3 256 180 215
3 88 243 185
3 185 215 234
3 127 159 256
3 175 215 185
3 209 101 220
3 220 215 175
3 218 243 157
3 218 175 185
3 147 157 243
3 175 218 184
3 243 218 185
3 220 175 232
3 147 243 90
3 256 220 101
3 243 88 90
3 121 218 157
3 121 157 169
3 80 194 190
3 236 97 131
3 75 103 74
3 75 76 103
3 103 171 233
3 171 205 195
3 171 103 151
3 233 171 195
3 233 173 103
3 103 173 74
3 222 233 124
3 124 233 195
3 195 125 124
3 125 143 124
3 195 240 125
3 240 89 118
3 89 113 118
3 118 134 108
3 120 134 236
3 134 118 223
3 120 108 134
3 240 221 125
3 221 240 108
3 108 216 221
3 216 108 120
3 240 118 108
3 221 216 149
3 216 237 235
3 89 240 195
3 89 195 205
3 105 125 221
3 73 173 156
3 173 73 74
3 156 222 71
3 222 156 173
3 233 222 173
3 73 156 72
3 72 3 73
3 70 71 222
3 72 156 71
3 222 143 70
3 69 143 105
3 222 124 143
3 68 105 149
3 143 125 105
3 149 105 221
3 67 149 235
3 68 69 105
3 66 67 235
3 68 149 67
3 66 235 65
3 143 69 70
3 216 235 149
3 237 216 120
3 142 237 120
3 236 131 142
3 259 110 170
3 142 131 259
3 131 110 259
3 142 259 163
3 237 163 244
3 237 142 163
3 174 167 170
3 167 163 259
3 170 167 259
3 163 167 201
3 110 209 170
3 142 120 236
3 209 232 238
3 209 220 232
3 184 121 106
3 232 175 184
3 218 121 184
3 232 184 227
3 174 170 238
3 238 232 227
3 129 227 106
3 227 184 106
3 121 214 106
3 255 238 227
3 214 121 169
3 209 238 170
3 110 101 209
3 230 106 214
3 244 201 64
3 244 163 201
3 62 160 219
3 160 201 167
3 174 160 167
3 201 160 63
3 64 65 244
3 62 63 160
3 64 201 63
3 160 174 219
3 65 235 244
3 255 198 219
3 255 227 198
3 198 129 60
3 198 227 129
3 106 230 129
3 59 129 230
3 219 61 62
3 219 198 61
3 61 198 60
3 60 129 59
3 230 58 59
3 58 230 133
3 255 219 174
3 174 238 255
3 230 214 133
3 244 235 237
3 192 236 134
3 206 90 19
3 20 21 161
3 22 23 251
3 21 22 148
3 254 206 161
3 161 206 20
3 217 161 148
3 251 148 22
3 161 21 148
3 251 172 148
3 23 98 251
3 206 147 90
3 24 25 98
3 26 27 207
3 25 26 245
3 153 98 245
3 245 98 25
3 203 245 207
3 207 245 26
3 27 164 207
3 251 98 94
3 164 186 138
3 24 98 23
3 203 207 164
3 147 254 200
3 147 206 254
3 254 217 191
3 217 148 172
3 161 217 254
3 191 217 172
3 136 200 95
3 200 254 95
3 191 242 95
3 168 242 191
3 254 191 95
3 91 95 242
3 191 172 168
3 200 169 157
3 202 94 153
3 251 94 172
3 153 203 152
3 153 245 203
3 153 94 98
3 138 140 203
3 242 168 87
3 168 94 202
3 152 249 202
3 152 202 153
3 140 152 203
3 87 168 202
3 138 225 140
3 94 168 172
3 164 138 203
3 140 199 152
3 164 27 28
3 206 19 20
3 28 29 186
3 30 31 150
3 29 30 188
3 226 186 188
3 186 29 188
3 188 150 212
3 155 104 150
3 30 150 188
3 104 212 150
3 150 31 155
3 226 138 186
3 32 33 162
3 34 1 35
3 33 34 141
3 92 155 162
3 155 32 162
3 82 162 141
3 141 162 33
3 35 141 34
3 155 92 104
3 32 155 31
3 36 141 35
3 226 145 225
3 145 226 212
3 212 253 145
3 212 104 253
3 226 188 212
3 145 253 96
3 140 225 177
3 225 145 126
3 126 96 115
3 126 145 96
3 253 239 96
3 239 86 96
3 253 204 239
3 225 138 226
3 250 204 92
3 253 104 204
3 250 92 82
3 82 92 162
3 104 92 204
3 37 82 36
3 193 107 250
3 250 107 204
3 139 37 38
3 139 250 82
3 193 250 139
3 82 37 139
3 239 107 132
3 204 107 239
3 36 82 141
3 225 126 177
3 186 164 28
3 122 139 38
3 84 169 136
3 169 200 136
3 136 91 109
3 91 242 114
3 95 91 136
3 114 128 91
3 252 84 109
3 84 136 109
3 109 128 81
3 158 128 114
3 91 128 109
3 158 137 128
3 114 248 158
3 84 133 214
3 87 248 114
3 248 87 249
3 248 249 257
3 249 87 202
3 199 249 152
3 257 249 199
3 146 257 111
3 257 146 248
3 154 111 176
3 228 111 257
3 257 199 228
3 146 111 93
3 199 177 228
3 248 146 158
3 114 242 87
3 158 146 247
3 56 133 252
3 252 109 81
3 252 81 55
3 81 128 137
3 133 84 252
3 137 54 81
3 56 57 133
3 54 55 81
3 56 252 55
3 137 53 54
3 57 58 133
3 52 53 247
3 247 53 137
3 52 247 93
3 93 247 146
3 137 158 247
3 50 93 154
3 51 52 93
3 49 50 154
3 51 93 50
3 49 154 116
3 154 93 111
3 176 111 228
3 169 84 214
3 117 176 228
3 177 126 117
3 117 115 165
3 117 126 115
3 86 115 96
3 241 115 86
3 116 176 165
3 165 176 117
3 99 165 241
3 246 241 86
3 165 115 241
3 246 100 241
3 86 132 246
3 117 228 177
3 132 196 211
3 132 107 196
3 196 193 178
3 193 139 122
3 86 239 132
3 178 193 122
3 231 211 178
3 211 196 178
3 135 39 40
3 135 178 122
3 39 135 122
3 231 178 135
3 38 39 122
3 132 211 246
3 196 107 193
3 119 246 211
3 48 116 99
3 116 165 99
3 47 99 100
3 119 100 246
3 99 241 100
3 46 100 119
3 47 48 99
3 45 46 119
3 47 100 46
3 119 166 45
3 48 49 116
3 43 166 231
3 119 211 166
3 130 40 41
3 130 231 135
3 231 166 211
3 43 231 130
3 44 166 43
3 42 41 2
3 42 43 130
3 41 42 130
3 166 44 45
3 40 130 135
3 116 154 176
3 140 177 199
3 157 147 200
POINT_DATA 260
SCALARS P float 1
LOOKUP_TABLE default
3493.283987
-526.247515
1372.731232
-5288.040659
-2084.021675
5693.784935
-3491.053886
5715.978474
-4198.665400
7380.552395
-8491.509917
12308.281265
-8324.185512
5774.289222
-2513.057443
5128.929188
-3251.876293
4017.722877
-1865.780948
3919.661181
-4640.412892
6373.098734
-4295.819868
3565.177028
-1471.694367
2447.315062
-2345.778730
2964.788978
-940.078789
-54.020121
555.753023
356.504597
163.502908
-859.524127
993.018865
1054.033004
-1507.129475
-76.198243
-887.679362
-1707.740289
-139.001809
-2533.953586
-3471.381858
4134.997621
-4576.622016
3302.544519
-3787.782629
3506.902919
-4252.628078
3418.829036
-3483.443253
1395.122252
-1868.074571
1581.875706
-3841.078191
3006.958774
-4043.668688
2332.512920
-4227.406409
2424.607626
-1591.578115
-1840.840543
-194.007220
-1438.623643
-951.172506
-834.961423
-3296.319476
255.354358
422.996796
-6337.902883
6876.750268
-11748.119608
8150.798058
10648.085408
-8124.851784
719.245953
7334.496793
-12142.556008
17821.790137
-6288.203058
-99392.160306
-27587.679463
4322.932659
7509.199216
11889.933141
-1895.646118
-3447.012190
-40434.987067
-36991.156331
-30481.726894
26176.925752
-46618.337297
-4723.086767
26375.014923
-10652.222235
-43719.463190
29240.851170
-30820.594343
-583.306949
-17588.352817
14639.548467
-64837.839435
14114.869054
-3702.131142
-1076.463891
44314.504506
16402.416592
12715.009001
-7645.727180
-12926.385106
34456.694502
-34092.865679
52954.555076
-28276.666846
43467.812135
-1592.298078
20001.009689
11216.908791
44391.348351
-11146.395740
15760.988156
33989.026607
5558.991824
39111.797751
5387.275223
-7026.881069
-36938.541839
-99507.648201
13199.964048
3601.103003
7312.712456
-47719.533163
6515.640828
-17720.543054
-51884.807290
2682.178632
45434.102398
29790.331729
20390.610174
2727.677706
5240.246325
-1556.139672
-10764.306768
-37857.907817
-24506.047068
15788.235547
26859.218892
48638.739717
-899.369626
-49840.429012
-5375.033523
-5747.907418
-3659.600439
17746.973473
-22662.777070
3048.526961
-27928.155254
-57864.737056
-21538.040819
47940.895222
-38922.508185
3689.816621
681.268640
-2534.614447
-144.698409
-38409.179732
11270.060086
2943.652838
-5983.732264
-35817.525534
-16389.057145
20177.356774
3755.851004
16075.682414
-5424.281707
-65574.435992
36711.668328
41485.928343
-8966.476391
-8198.217146
-48819.392998
54786.433287
97201.545500
17244.133546
-23050.823809
85459.363234
-2831.699990
-3396.242693
5762.512152
-32834.802738
-46165.751593
13093.720436
231.435861
-6389.311315
105778.782085
2727.299431
-75.503710
14830.683864
-17845.707526
-43037.975064
47405.782069
46641.659930
3224.370653
-19641.587184
13685.494940
9381.176712
-16046.346523
851.601897
-97941.840504
-25549.057855
-59961.521890
18574.550544
7517.903323
-47955.780436
-18948.285608
-96703.889401
367.704228
5992.340268
57231.137628
29376.740379
63508.673010
-403.818571
38895.082012
22927.687235
-20458.340098
-11375.765533
-14893.023255
-21465.651403
-19794.171723
50979.358728
10644.472274
-12880.496503
23413.013174
-27657.151077
44260.771260
54800.351130
47276.363114
-8464.126147
14535.996692
-21819.187826
4524.591635
35090.178342
37515.328581
-63439.087210
-49245.300113
-97.762017
-30234.605615
-28472.450165
-36153.986522
42141.865660
-8771.176468
382.847451
24603.603266
-16569.732594
-26248.588984
5196.225256
107054.505404
29613.355039
84473.756312
16411.959961
