# vtk DataFile Version 2.0
patchtest_tri3_mix
ASCII
DATASET POLYDATA
POINTS 861 float
0.000000 0.000000 0.000000
48.000000 44.000000 0.000000
48.000000 60.000000 0.000000
0.000000 44.000000 0.000000
1.200000 1.100000 0.000000
2.400000 2.200000 0.000000
3.600000 3.300000 0.000000
4.800000 4.400000 0.000000
6.000000 5.500000 0.000000
7.200000 6.600000 0.000000
8.400000 7.700000 0.000000
9.600000 8.800000 0.000000
10.800000 9.900000 0.000000
12.000000 11.000000 0.000000
13.200000 12.100000 0.000000
14.400000 13.200000 0.000000
15.600000 14.300000 0.000000
16.800000 15.400000 0.000000
18.000000 16.500000 0.000000
19.200000 17.600000 0.000000
20.400000 18.700000 0.000000
21.600000 19.800000 0.000000
22.800000 20.900000 0.000000
24.000000 22.000000 0.000000
25.200000 23.100000 0.000000
26.400000 24.200000 0.000000
27.600000 25.300000 0.000000
28.800000 26.400000 0.000000
30.000000 27.500000 0.000000
31.200000 28.600000 0.000000
32.400000 29.700000 0.000000
33.600000 30.800000 0.000000
34.800000 31.900000 0.000000
36.000000 33.000000 0.000000
37.200000 34.100000 0.000000
38.400000 35.200000 0.000000
39.600000 36.300000 0.000000
40.800000 37.400000 0.000000
42.000000 38.500000 0.000000
43.200000 39.600000 0.000000
44.400000 40.700000 0.000000
45.600000 41.800000 0.000000
46.800000 42.900000 0.000000
48.000000 44.800000 0.000000
48.000000 45.600000 0.000000
48.000000 46.400000 0.000000
48.000000 47.200000 0.000000
48.000000 48.000000 0.000000
48.000000 48.800000 0.000000
48.000000 49.600000 0.000000
48.000000 50.400000 0.000000
48.000000 51.200000 0.000000
48.000000 52.000000 0.000000
48.000000 52.800000 0.000000
48.000000 53.600000 0.000000
48.000000 54.400000 0.000000
48.000000 55.200000 0.000000
48.000000 56.000000 0.000000
48.000000 56.800000 0.000000
48.000000 57.600000 0.000000
48.000000 58.400000 0.000000
48.000000 59.200000 0.000000
46.800000 59.600000 0.000000
45.600000 59.200000 0.000000
44.400000 58.800000 0.000000
43.200000 58.400000 0.000000
42.000000 58.000000 0.000000
40.800000 57.600000 0.000000
39.600000 57.200000 0.000000
38.400000 56.800000 0.000000
37.200000 56.400000 0.000000
36.000000 56.000000 0.000000
34.800000 55.600000 0.000000
33.600000 55.200000 0.000000
32.400000 54.800000 0.000000
31.200000 54.400000 0.000000
30.000000 54.000000 0.000000
28.800000 53.600000 0.000000
27.600000 53.200000 0.000000
26.400000 52.800000 0.000000
25.200000 52.400000 0.000000
24.000000 52.000000 0.000000
22.800000 51.600000 0.000000
21.600000 51.200000 0.000000
20.400000 50.800000 0.000000
19.200000 50.400000 0.000000
18.000000 50.000000 0.000000
16.800000 49.600000 0.000000
15.600000 49.200000 0.000000
14.400000 48.800000 0.000000
13.200000 48.400000 0.000000
12.000000 48.000000 0.000000
10.800000 47.600000 0.000000
9.600000 47.200000 0.000000
8.400000 46.800000 0.000000
7.200000 46.400000 0.000000
6.000000 46.000000 0.000000
4.800000 45.600000 0.000000
3.600000 45.200000 0.000000
2.400000 44.800000 0.000000
1.200000 44.400000 0.000000
0.000000 41.800000 0.000000
0.000000 39.600000 0.000000
0.000000 37.400000 0.000000
0.000000 35.200000 0.000000
0.000000 33.000000 0.000000
0.000000 30.800000 0.000000
0.000000 28.600000 0.000000
0.000000 26.400000 0.000000
0.000000 24.200000 0.000000
0.000000 22.000000 0.000000
0.000000 19.800000 0.000000
0.000000 17.600000 0.000000
0.000000 15.400000 0.000000
0.000000 13.200000 0.000000
0.000000 11.000000 0.000000
0.000000 8.800000 0.000000
0.000000 6.600000 0.000000
0.000000 4.400000 0.000000
0.000000 2.200000 0.000000
1.200000 3.265000 0.000000
1.200000 5.430000 0.000000
1.200000 7.595000 0.000000
1.200000 9.760000 0.000000
1.200000 11.925000 0.000000
1.200000 14.090000 0.000000
1.200000 16.255000 0.000000
1.200000 18.420000 0.000000
1.200000 20.585000 0.000000
1.200000 22.750000 0.000000
1.200000 24.915000 0.000000
1.200000 27.080000 0.000000
1.200000 29.245000 0.000000
1.200000 31.410000 0.000000
1.200000 33.575000 0.000000
1.200000 35.740000 0.000000
1.200000 37.905000 0.000000
1.200000 40.070000 0.000000
1.200000 42.235000 0.000000
2.400000 4.330000 0.000000
2.400000 6.460000 0.000000
2.400000 8.590000 0.000000
2.400000 10.720000 0.000000
2.400000 12.850000 0.000000
2.400000 14.980000 0.000000
2.400000 17.110000 0.000000
2.400000 19.240000 0.000000
2.400000 21.370000 0.000000
2.400000 23.500000 0.000000
2.400000 25.630000 0.000000
2.400000 27.760000 0.000000
2.400000 29.890000 0.000000
2.400000 32.020000 0.000000
2.400000 34.150000 0.000000
2.400000 36.280000 0.000000
2.400000 38.410000 0.000000
2.400000 40.540000 0.000000
2.400000 42.670000 0.000000
3.600000 5.395000 0.000000
3.600000 7.490000 0.000000
3.600000 9.585000 0.000000
3.600000 11.680000 0.000000
3.600000 13.775000 0.000000
3.600000 15.870000 0.000000
3.600000 17.965000 0.000000
3.600000 20.060000 0.000000
3.600000 22.155000 0.000000
3.600000 24.250000 0.000000
3.600000 26.345000 0.000000
3.600000 28.440000 0.000000
3.600000 30.535000 0.000000
3.600000 32.630000 0.000000
3.600000 34.725000 0.000000
3.600000 36.820000 0.000000
3.600000 38.915000 0.000000
3.600000 41.010000 0.000000
3.600000 43.105000 0.000000
4.800000 6.460000 0.000000
4.800000 8.520000 0.000000
4.800000 10.580000 0.000000
4.800000 12.640000 0.000000
4.800000 14.700000 0.000000
4.800000 16.760000 0.000000
4.800000 18.820000 0.000000
4.800000 20.880000 0.000000
4.800000 22.940000 0.000000
4.800000 25.000000 0.000000
4.800000 27.060000 0.000000
4.800000 29.120000 0.000000
4.800000 31.180000 0.000000
4.800000 33.240000 0.000000
4.800000 35.300000 0.000000
4.800000 37.360000 0.000000
4.800000 39.420000 0.000000
4.800000 41.480000 0.000000
4.800000 43.540000 0.000000
6.000000 7.525000 0.000000
6.000000 9.550000 0.000000
6.000000 11.575000 0.000000
6.000000 13.600000 0.000000
6.000000 15.625000 0.000000
6.000000 17.650000 0.000000
6.000000 19.675000 0.000000
6.000000 21.700000 0.000000
6.000000 23.725000 0.000000
6.000000 25.750000 0.000000
6.000000 27.775000 0.000000
6.000000 29.800000 0.000000
6.000000 31.825000 0.000000
6.000000 33.850000 0.000000
6.000000 35.875000 0.000000
6.000000 37.900000 0.000000
6.000000 39.925000 0.000000
6.000000 41.950000 0.000000
6.000000 43.975000 0.000000
7.200000 8.590000 0.000000
7.200000 10.580000 0.000000
7.200000 12.570000 0.000000
7.200000 14.560000 0.000000
7.200000 16.550000 0.000000
7.200000 18.540000 0.000000
7.200000 20.530000 0.000000
7.200000 22.520000 0.000000
7.200000 24.510000 0.000000
7.200000 26.500000 0.000000
7.200000 28.490000 0.000000
7.200000 30.480000 0.000000
7.200000 32.470000 0.000000
7.200000 34.460000 0.000000
7.200000 36.450000 0.000000
7.200000 38.440000 0.000000
7.200000 40.430000 0.000000
7.200000 42.420000 0.000000
7.200000 44.410000 0.000000
8.400000 9.655000 0.000000
8.400000 11.610000 0.000000
8.400000 13.565000 0.000000
8.400000 15.520000 0.000000
8.400000 17.475000 0.000000
8.400000 19.430000 0.000000
8.400000 21.385000 0.000000
8.400000 23.340000 0.000000
8.400000 25.295000 0.000000
8.400000 27.250000 0.000000
8.400000 29.205000 0.000000
8.400000 31.160000 0.000000
8.400000 33.115000 0.000000
8.400000 35.070000 0.000000
8.400000 37.025000 0.000000
8.400000 38.980000 0.000000
8.400000 40.935000 0.000000
8.400000 42.890000 0.000000
8.400000 44.845000 0.000000
9.600000 10.720000 0.000000
9.600000 12.640000 0.000000
9.600000 14.560000 0.000000
9.600000 16.480000 0.000000
9.600000 18.400000 0.000000
9.600000 20.320000 0.000000
9.600000 22.240000 0.000000
9.600000 24.160000 0.000000
9.600000 26.080000 0.000000
9.600000 28.000000 0.000000
9.600000 29.920000 0.000000
9.600000 31.840000 0.000000
9.600000 33.760000 0.000000
9.600000 35.680000 0.000000
9.600000 37.600000 0.000000
9.600000 39.520000 0.000000
9.600000 41.440000 0.000000
9.600000 43.360000 0.000000
9.600000 45.280000 0.000000
10.800000 11.785000 0.000000
10.800000 13.670000 0.000000
10.800000 15.555000 0.000000
10.800000 17.440000 0.000000
10.800000 19.325000 0.000000
10.800000 21.210000 0.000000
10.800000 23.095000 0.000000
10.800000 24.980000 0.000000
10.800000 26.865000 0.000000
10.800000 28.750000 0.000000
10.800000 30.635000 0.000000
10.800000 32.520000 0.000000
10.800000 34.405000 0.000000
10.800000 36.290000 0.000000
10.800000 38.175000 0.000000
10.800000 40.060000 0.000000
10.800000 41.945000 0.000000
10.800000 43.830000 0.000000
10.800000 45.715000 0.000000
12.000000 12.850000 0.000000
12.000000 14.700000 0.000000
12.000000 16.550000 0.000000
12.000000 18.400000 0.000000
12.000000 20.250000 0.000000
12.000000 22.100000 0.000000
12.000000 23.950000 0.000000
12.000000 25.800000 0.000000
12.000000 27.650000 0.000000
12.000000 29.500000 0.000000
12.000000 31.350000 0.000000
12.000000 33.200000 0.000000
12.000000 35.050000 0.000000
12.000000 36.900000 0.000000
12.000000 38.750000 0.000000
12.000000 40.600000 0.000000
12.000000 42.450000 0.000000
12.000000 44.300000 0.000000
12.000000 46.150000 0.000000
13.200000 13.915000 0.000000
13.200000 15.730000 0.000000
13.200000 17.545000 0.000000
13.200000 19.360000 0.000000
13.200000 21.175000 0.000000
13.200000 22.990000 0.000000
13.200000 24.805000 0.000000
13.200000 26.620000 0.000000
13.200000 28.435000 0.000000
13.200000 30.250000 0.000000
13.200000 32.065000 0.000000
13.200000 33.880000 0.000000
13.200000 35.695000 0.000000
13.200000 37.510000 0.000000
13.200000 39.325000 0.000000
13.200000 41.140000 0.000000
13.200000 42.955000 0.000000
13.200000 44.770000 0.000000
13.200000 46.585000 0.000000
14.400000 14.980000 0.000000
14.400000 16.760000 0.000000
14.400000 18.540000 0.000000
14.400000 20.320000 0.000000
14.400000 22.100000 0.000000
14.400000 23.880000 0.000000
14.400000 25.660000 0.000000
14.400000 27.440000 0.000000
14.400000 29.220000 0.000000
14.400000 31.000000 0.000000
14.400000 32.780000 0.000000
14.400000 34.560000 0.000000
14.400000 36.340000 0.000000
14.400000 38.120000 0.000000
14.400000 39.900000 0.000000
14.400000 41.680000 0.000000
14.400000 43.460000 0.000000
14.400000 45.240000 0.000000
14.400000 47.020000 0.000000
15.600000 16.045000 0.000000
[...]
POINT_DATA 861
SCALARS P float 1
LOOKUP_TABLE default
1191.973058
4.908073
-1.218026
1797.200623
-519.238495
639.213353
-280.754322
187.040914
7.904589
52.328248
-10.741369
4.392774
2.635560
-5.627649
10.134855
-0.247067
9.070480
4.599653
7.386562
9.550014
5.888412
10.091150
8.521887
10.054703
10.181961
10.721883
11.149221
11.464248
11.761101
11.971171
12.129394
12.198310
12.208518
12.177186
12.048507
11.875520
11.631616
11.304284
10.879550
10.319519
9.577265
8.555369
7.035833
-1.941483
5.871174
1.515203
6.130227
3.792971
6.613388
5.272593
7.121022
6.268633
7.534877
6.944960
7.782645
7.419831
7.778974
7.863902
7.316971
8.721484
5.560337
11.167956
-8.801735
-4.138533
-5.802485
-5.550549
-5.763592
-6.047620
-6.369993
-6.743571
-7.133208
-7.525121
-7.903241
-8.253814
-8.584046
-8.873254
-9.135309
-9.365195
-9.607397
-9.646364
-10.197897
-9.607281
-11.000749
-9.740539
-8.374212
-19.703075
-1.560029
-15.088106
-14.718698
-4.313124
-0.963587
-65.130710
-33.182505
82.716037
-204.539097
395.595553
-554.816592
800.930631
-1213.472469
1549.771381
-1993.638724
2687.152025
2977.420841
3035.029038
3216.042978
2716.890095
2882.932026
2053.757005
2213.630582
1317.868775
1456.420078
672.231895
765.372497
188.490857
219.693657
-106.669865
-183.508276
-389.649746
-523.073260
-748.771859
538.280959
442.973680
240.638310
145.566557
25.300241
-220.638781
-267.594349
-800.718479
-761.140967
-1554.544370
-1374.901603
-2363.145241
-2029.646535
-3050.029551
-2578.711572
-3369.089834
-2802.954466
-3102.730591
-2463.139638
-291.351810
-117.610587
-114.591565
-12.272709
-3.975922
189.358621
261.982399
569.956389
731.300491
1050.283008
1284.262935
1551.848414
1836.687679
1978.369281
2276.398066
2211.966529
2443.502952
2148.586267
2244.087875
225.630931
142.379048
81.056296
17.990711
-7.004436
-227.365671
-242.484652
-668.863906
-622.190167
-1212.218443
-1070.443497
-1749.946373
-1504.960487
-2145.275337
-1820.015092
-2253.338389
-1882.061997
-2011.092832
-1650.638886
-277.739290
-103.844908
-80.102629
15.316379
86.063189
272.093974
458.895206
690.257998
994.653717
1213.936706
1584.964488
1722.387020
2074.401200
2056.862558
2284.239096
2059.442035
2078.865409
1699.923408
1506.062039
165.517475
85.797184
54.595011
-36.594163
-71.177690
-289.387365
-306.685518
-662.056333
-642.668917
-1099.543753
-1019.598553
-1507.554902
-1355.091079
-1762.011750
-1534.484783
-1737.216272
-1448.430147
-1402.008977
-1065.821514
-79.551856
-50.189382
-13.474640
44.580763
76.177542
152.202304
195.499821
297.163440
351.684268
477.198442
549.084261
699.946037
783.968545
931.583118
992.053819
1074.570913
1034.715581
983.663869
813.499567
73.901549
39.484898
13.655099
-41.703556
-27.127376
-115.761422
-81.344302
-211.820599
-161.505196
-339.324324
-297.177183
-520.055393
-503.862786
-729.515762
-732.930329
-873.833566
-834.485758
-817.476583
-709.751613
-26.725229
-22.234471
-11.547980
-19.812104
-44.055706
-41.699381
-78.619190
-61.099177
-105.107839
-55.022807
-86.520978
10.643979
8.479731
151.149699
177.494785
323.584470
346.317416
445.647431
376.106007
41.390781
34.828844
58.965660
81.381145
140.912935
152.965133
230.221222
227.999404
307.445831
269.423335
322.927821
231.437143
224.641310
78.908410
0.901922
-159.633461
-286.235879
-389.037476
-393.703944
-15.636393
-14.914669
-28.295615
-52.455000
-76.982375
-105.217622
-134.235124
-162.918377
-185.397190
-198.941421
-204.932769
-184.921604
-165.280590
-103.470986
-62.512720
30.792357
84.065288
154.677739
100.297146
12.699099
7.950747
12.577155
21.670713
41.249019
55.492486
85.859639
103.208965
138.546860
157.682461
192.412244
209.821520
235.968469
247.079887
248.387708
229.259937
188.130147
139.494325
37.583242
5.946846
6.428161
9.186829
-12.389008
-19.221644
-52.002942
-68.149024
-107.282203
-133.895033
-174.738423
-213.191058
-247.314051
-294.729070
-309.614597
-337.775225
-304.264110
-289.068444
-190.672409
-42.179469
5.406895
4.533650
5.682665
13.526068
15.930203
31.576109
35.447801
58.543302
64.165203
93.653098
101.890675
133.105140
144.427409
164.494085
163.168395
153.579470
133.625190
62.938984
-18.609227
8.674282
13.070335
20.742376
27.004334
34.821001
37.270929
41.232693
38.042564
35.781208
24.659221
13.442451
-6.521669
-26.801117
-46.302168
-65.082290
-74.018565
-74.044882
-26.816032
6.906787
1.369179
-10.838095
-25.561463
-39.813485
-54.885623
-63.109170
-74.136975
-72.962950
-75.939053
-61.127008
-51.457495
-21.850989
-1.637634
28.800684
50.435840
64.134484
50.432426
-12.790459
-25.949290
16.995629
29.535942
41.094173
53.169614
62.047862
68.741115
72.521844
70.638960
66.203275
51.784457
36.667578
9.494273
-10.029834
-38.974189
-54.726122
-65.490476
-35.934953
5.967920
-3.810028
0.417673
-5.398850
-11.805734
-16.769167
-21.685340
-24.526891
-26.710250
-26.089977
-23.755473
-18.213216
-10.500441
-0.981169
7.586084
17.221810
21.594218
19.578348
-3.997183
-16.648492
-7.843736
11.486647
12.706907
14.021442
14.205269
15.001598
14.018699
13.899148
11.521683
9.871379
6.059458
2.606093
-1.684761
-5.658791
-9.344093
-11.881126
-10.887397
-4.811977
-6.183132
-11.296014
8.590387
7.478930
7.079848
6.060877
5.331188
4.530343
3.499422
3.039503
1.821321
1.668488
0.462966
0.250195
-0.895175
-1.669320
-2.645739
-4.808249
-7.543301
-7.845773
-8.304573
9.428508
9.188710
8.413807
7.980721
6.976839
6.316436
5.246481
4.252086
3.259110
1.889382
0.970622
-0.614789
-1.445202
-2.977047
-4.317950
-5.075237
-6.082110
-7.871652
-9.217864
10.122079
9.159928
8.766593
7.769323
7.147377
6.063325
5.252105
4.131706
3.109801
2.053314
0.844752
-0.186237
-1.587988
-2.447300
-3.723070
-5.224531
-6.343525
-7.226669
-8.752745
10.403101
9.579018
8.913849
8.079747
7.179730
6.293008
5.254572
4.284362
3.178869
2.082454
0.978073
-0.165621
-1.291449
-2.646182
-3.655868
-4.729983
-6.144897
-7.413668
-8.553243
10.859788
9.775208
9.202810
8.182374
7.363100
6.328582
5.373549
4.292774
3.258979
2.155913
1.026209
-0.098842
-1.207259
-2.312259
-3.623289
-4.764118
-5.855374
-7.072281
-8.484755
11.192787
10.005792
9.368801
8.336711
7.450344
6.432572
5.428015
4.380187
3.301376
2.226447
1.130869
0.001374
-1.150968
-2.261967
-3.358464
-4.568365
-5.804397
-6.915770
-8.193220
11.464833
10.175498
9.533934
8.424009
7.548330
6.481821
5.488204
4.420505
3.367191
2.273544
1.187985
0.102712
-1.007873
-2.146035
-3.286445
-4.380615
-5.564829
-6.738939
-8.012149
11.682753
10.284366
9.664307
8.489215
7.613249
6.526779
5.530720
4.457446
3.412013
2.337041
1.258709
0.168559
-0.911545
-1.997917
-3.117566
-4.240997
-5.384096
-6.498478
-7.754197
11.839659
10.330629
9.746848
8.513204
7.648721
6.535511
5.552824
4.474024
3.439942
2.373313
1.324041
0.258023
-0.813546
-1.881544
-2.961217
-4.040622
-5.178661
-6.272419
-7.482561
11.965898
10.343853
9.790689
8.506568
7.660034
6.526019
5.555414
4.479671
3.462579
2.409474
1.377381
0.340800
-0.695704
-1.736200
-2.794496
-3.841722
-4.936316
-6.004191
-7.178404
11.980761
10.295988
9.788923
8.442062
7.632099
6.472188
5.527188
4.450234
3.460576
2.427087
1.427715
0.415465
-0.585293
-1.587598
-2.606070
-3.622743
-4.684929
-5.718479
-6.854403
11.976929
10.180417
9.757862
8.340558
7.573848
6.393145
5.476851
4.408268
3.447694
2.439690
1.479359
0.507015
-0.453450
-1.415285
-2.392631
-3.368103
-4.394220
-5.398908
-6.496494
11.917822
10.008433
9.667743
8.185612
7.468917
6.268221
5.391037
4.333753
3.418176
2.442442
1.530052
0.604626
-0.303419
-1.216428
-2.148473
-3.084293
-4.074665
-5.052260
-6.127333
11.778205
9.781193
9.522926
7.973698
7.318642
6.099169
5.273782
4.233426
3.372445
2.446984
1.594982
0.729078
-0.118436
-0.975216
-1.856789
-2.752361
-3.713790
-4.671396
-5.742584
11.573209
9.477306
9.317971
7.693619
7.112955
5.878092
5.119680
4.118705
3.320674
2.462498
1.688171
0.896396
0.121623
-0.671684
-1.502933
-2.356540
-3.306085
-4.248895
-5.358597
11.285847
9.082907
9.032874
7.332360
6.839271
5.602626
4.909215
3.985780
3.277787
2.511935
1.834714
1.137162
0.442494
-0.274672
-1.061799
-1.873861
-2.831353
-3.783029
-4.967680
10.892902
8.580896
8.645238
6.869808
6.476270
5.298905
4.683127
3.851805
3.281350
2.626469
2.086959
1.483482
0.902386
0.240783
-0.475635
-1.281423
-2.249730
-3.244625
-4.590858
10.358371
7.930143
8.120125
6.290673
5.944767
4.906714
4.455451
3.774861
3.371944
2.894910
2.466421
2.048200
1.483294
1.028075
0.190144
-0.377296
-1.662401
-2.441373
-4.298128
9.624010
7.050509
7.381627
5.667764
5.400008
4.472620
4.334431
3.811306
3.706104
3.323881
3.177221
2.736078
2.507560
1.830933
1.485572
0.343887
-0.204009
-2.129627
-3.146894
8.609426
5.816712
6.012064
4.708141
4.838438
4.211187
4.433686
4.213879
4.255221
4.229486
3.981196
4.094068
3.387323
3.713213
2.181452
2.929623
-0.182987
1.187983
-4.702454
6.957848
4.706461
4.322571
3.926183
4.640900
4.453208
5.034455
5.036442
5.315207
5.427462
5.419768
5.535905
5.298972
5.228465
4.901655
4.139382
4.067442
1.094648
1.676869
