# vtk DataFile Version 2.0
patchtest_tri3_mix
ASCII
DATASET POLYDATA
POINTS 411 float
0.000000 0.000000 0.000000
1.000000 0.000000 0.000000
1.000000 1.000000 0.000000
0.000000 1.000000 0.000000
0.055556 0.000000 0.000000
0.111111 0.000000 0.000000
0.166667 0.000000 0.000000
0.222222 0.000000 0.000000
0.277778 0.000000 0.000000
0.333333 0.000000 0.000000
0.388889 0.000000 0.000000
0.444444 0.000000 0.000000
0.500000 0.000000 0.000000
0.555556 0.000000 0.000000
0.611111 0.000000 0.000000
0.666667 0.000000 0.000000
0.722222 0.000000 0.000000
0.777778 0.000000 0.000000
0.833333 0.000000 0.000000
0.888889 0.000000 0.000000
0.944444 0.000000 0.000000
1.000000 0.055556 0.000000
1.000000 0.111111 0.000000
1.000000 0.166667 0.000000
1.000000 0.222222 0.000000
1.000000 0.277778 0.000000
1.000000 0.333333 0.000000
1.000000 0.388889 0.000000
1.000000 0.444444 0.000000
1.000000 0.500000 0.000000
1.000000 0.555556 0.000000
1.000000 0.611111 0.000000
1.000000 0.666667 0.000000
1.000000 0.722222 0.000000
1.000000 0.777778 0.000000
1.000000 0.833333 0.000000
1.000000 0.888889 0.000000
1.000000 0.944444 0.000000
0.944444 1.000000 0.000000
0.888889 1.000000 0.000000
0.833333 1.000000 0.000000
0.777778 1.000000 0.000000
0.722222 1.000000 0.000000
0.666667 1.000000 0.000000
0.611111 1.000000 0.000000
0.555556 1.000000 0.000000
0.500000 1.000000 0.000000
0.444444 1.000000 0.000000
0.388889 1.000000 0.000000
0.333333 1.000000 0.000000
0.277778 1.000000 0.000000
0.222222 1.000000 0.000000
0.166667 1.000000 0.000000
0.111111 1.000000 0.000000
0.055556 1.000000 0.000000
0.000000 0.944444 0.000000
0.000000 0.888889 0.000000
0.000000 0.833333 0.000000
0.000000 0.777778 0.000000
0.000000 0.722222 0.000000
0.000000 0.666667 0.000000
0.000000 0.611111 0.000000
0.000000 0.555556 0.000000
0.000000 0.500000 0.000000
0.000000 0.444444 0.000000
0.000000 0.388889 0.000000
0.000000 0.333333 0.000000
0.000000 0.277778 0.000000
0.000000 0.222222 0.000000
0.000000 0.166667 0.000000
0.000000 0.111111 0.000000
0.000000 0.055556 0.000000
0.096718 0.094397 0.000000
0.652633 0.630822 0.000000
0.108941 0.751404 0.000000
0.354319 0.146725 0.000000
0.746316 0.594980 0.000000
0.615005 0.904608 0.000000
0.652203 0.766027 0.000000
0.672266 0.679981 0.000000
0.088621 0.898972 0.000000
0.704989 0.048319 0.000000
0.418712 0.051328 0.000000
0.633659 0.581490 0.000000
0.648955 0.388576 0.000000
0.540638 0.756751 0.000000
0.584822 0.951843 0.000000
0.048373 0.094183 0.000000
0.601364 0.481328 0.000000
0.655591 0.144018 0.000000
0.518978 0.706297 0.000000
0.044453 0.305552 0.000000
0.588884 0.856447 0.000000
0.333824 0.349685 0.000000
0.255844 0.722381 0.000000
0.704865 0.291561 0.000000
0.473596 0.950576 0.000000
0.562983 0.098459 0.000000
0.199369 0.951375 0.000000
0.508452 0.802573 0.000000
0.672140 0.904193 0.000000
0.044839 0.906253 0.000000
0.843660 0.242571 0.000000
0.417493 0.272277 0.000000
0.206929 0.204783 0.000000
0.306905 0.187042 0.000000
0.443211 0.645575 0.000000
0.359919 0.197984 0.000000
0.653864 0.486212 0.000000
0.855632 0.190573 0.000000
0.705660 0.390148 0.000000
0.903007 0.833316 0.000000
0.697023 0.951964 0.000000
0.763647 0.048204 0.000000
0.097370 0.141210 0.000000
0.280220 0.588406 0.000000
0.531153 0.049403 0.000000
0.907132 0.098338 0.000000
0.690220 0.438560 0.000000
0.853291 0.302736 0.000000
0.200627 0.710236 0.000000
0.342264 0.902475 0.000000
0.900816 0.214625 0.000000
0.455814 0.494674 0.000000
0.324425 0.293700 0.000000
0.211046 0.516331 0.000000
0.224795 0.568980 0.000000
0.101599 0.848324 0.000000
0.384770 0.367105 0.000000
0.144958 0.095087 0.000000
0.519173 0.312140 0.000000
0.796791 0.095716 0.000000
0.803221 0.191834 0.000000
0.087984 0.798462 0.000000
0.950463 0.357961 0.000000
0.706427 0.489253 0.000000
0.855661 0.636880 0.000000
0.253956 0.951876 0.000000
0.707634 0.770761 0.000000
0.045862 0.045813 0.000000
0.196284 0.049213 0.000000
0.951498 0.470194 0.000000
0.299162 0.443192 0.000000
0.389174 0.631251 0.000000
0.884090 0.048050 0.000000
0.415332 0.534299 0.000000
0.095967 0.655016 0.000000
0.393844 0.422841 0.000000
0.808248 0.499290 0.000000
0.528954 0.951166 0.000000
0.757059 0.289161 0.000000
0.759241 0.390363 0.000000
0.144856 0.396890 0.000000
0.690509 0.588429 0.000000
0.267039 0.534026 0.000000
0.904213 0.611044 0.000000
0.903340 0.554624 0.000000
0.606514 0.286784 0.000000
0.713495 0.144268 0.000000
0.901972 0.722068 0.000000
0.409110 0.214721 0.000000
0.680331 0.096155 0.000000
0.847689 0.697051 0.000000
0.135799 0.290205 0.000000
0.811565 0.656315 0.000000
0.189953 0.355813 0.000000
0.558503 0.279797 0.000000
0.094972 0.949729 0.000000
0.654849 0.290767 0.000000
0.957232 0.957719 0.000000
0.681362 0.341419 0.000000
0.508857 0.255337 0.000000
0.948049 0.185537 0.000000
0.342303 0.405485 0.000000
0.152449 0.193523 0.000000
0.053298 0.526610 0.000000
0.795120 0.337130 0.000000
0.162275 0.752204 0.000000
0.761856 0.648572 0.000000
0.108908 0.235885 0.000000
0.138156 0.597290 0.000000
0.351755 0.460986 0.000000
0.046985 0.361011 0.000000
0.801175 0.603789 0.000000
0.453565 0.797760 0.000000
0.772088 0.143892 0.000000
0.736457 0.809879 0.000000
0.505420 0.098067 0.000000
0.577174 0.572532 0.000000
0.047768 0.692341 0.000000
0.732197 0.695258 0.000000
0.728795 0.904332 0.000000
0.633355 0.718483 0.000000
0.290903 0.388041 0.000000
0.140876 0.343555 0.000000
0.950792 0.639541 0.000000
0.436257 0.384953 0.000000
0.853098 0.414469 0.000000
0.428821 0.744088 0.000000
0.248078 0.052116 0.000000
0.461934 0.698560 0.000000
0.446149 0.103978 0.000000
0.232899 0.315566 0.000000
0.093042 0.334019 0.000000
0.533208 0.853511 0.000000
0.507968 0.509320 0.000000
0.743687 0.440324 0.000000
0.854855 0.096690 0.000000
0.246406 0.674257 0.000000
0.309185 0.951935 0.000000
0.275139 0.765353 0.000000
0.738054 0.340584 0.000000
0.333968 0.607373 0.000000
0.183449 0.902320 0.000000
0.403889 0.478388 0.000000
0.676566 0.813110 0.000000
0.948990 0.859132 0.000000
0.239942 0.370748 0.000000
0.467968 0.549551 0.000000
0.049992 0.471609 0.000000
0.558715 0.903257 0.000000
0.668072 0.536698 0.000000
0.499340 0.655429 0.000000
0.315061 0.238929 0.000000
0.572635 0.331516 0.000000
0.168120 0.553951 0.000000
0.809389 0.750891 0.000000
0.591896 0.431063 0.000000
0.265401 0.856024 0.000000
0.549022 0.469767 0.000000
0.588331 0.049265 0.000000
0.096801 0.704403 0.000000
0.044459 0.802434 0.000000
0.897583 0.270084 0.000000
0.626336 0.338566 0.000000
0.137847 0.801284 0.000000
0.288935 0.904252 0.000000
0.798726 0.444045 0.000000
0.428312 0.590302 0.000000
0.394514 0.899090 0.000000
0.687940 0.192752 0.000000
0.541816 0.416969 0.000000
0.307333 0.045462 0.000000
0.143471 0.648057 0.000000
0.576118 0.712731 0.000000
0.709202 0.640994 0.000000
0.448865 0.900261 0.000000
0.319697 0.855214 0.000000
0.768506 0.546137 0.000000
0.488903 0.402227 0.000000
0.246593 0.425659 0.000000
0.858166 0.524734 0.000000
0.482341 0.603356 0.000000
0.337049 0.095668 0.000000
0.594864 0.622019 0.000000
0.095872 0.386573 0.000000
0.272262 0.275869 0.000000
0.950200 0.750027 0.000000
0.345757 0.659814 0.000000
0.951364 0.804598 0.000000
0.702940 0.856817 0.000000
0.049438 0.579449 0.000000
0.556120 0.231009 0.000000
0.375456 0.573551 0.000000
0.401335 0.799269 0.000000
0.102188 0.493591 0.000000
0.301556 0.699066 0.000000
0.614941 0.530999 0.000000
0.050745 0.247377 0.000000
0.596641 0.761865 0.000000
0.752614 0.951679 0.000000
0.099729 0.187916 0.000000
0.573212 0.187133 0.000000
0.239190 0.622718 0.000000
0.613894 0.670392 0.000000
0.859490 0.853635 0.000000
0.831658 0.142677 0.000000
0.411503 0.154854 0.000000
0.197340 0.151212 0.000000
0.902367 0.441210 0.000000
0.478773 0.348544 0.000000
0.049824 0.853845 0.000000
0.900591 0.780200 0.000000
0.298110 0.138016 0.000000
0.951325 0.526628 0.000000
0.806747 0.951307 0.000000
0.856970 0.749503 0.000000
0.855810 0.583918 0.000000
0.909094 0.948212 0.000000
0.108067 0.548313 0.000000
0.147041 0.699798 0.000000
0.321681 0.552636 0.000000
0.521789 0.562239 0.000000
0.146117 0.950726 0.000000
0.455395 0.186089 0.000000
0.808919 0.849973 0.000000
0.753777 0.749458 0.000000
0.630119 0.191531 0.000000
0.478415 0.850310 0.000000
0.366501 0.253956 0.000000
0.845628 0.802147 0.000000
0.285336 0.089951 0.000000
0.738513 0.096176 0.000000
0.164868 0.245602 0.000000
0.900671 0.384681 0.000000
0.146650 0.143283 0.000000
0.691432 0.726560 0.000000
0.814282 0.552894 0.000000
0.497533 0.455444 0.000000
0.088995 0.283268 0.000000
0.391138 0.101359 0.000000
0.808485 0.285129 0.000000
0.950145 0.908990 0.000000
0.894754 0.152074 0.000000
0.144883 0.047670 0.000000
0.597671 0.142559 0.000000
0.536534 0.147578 0.000000
0.839508 0.902096 0.000000
0.757918 0.855702 0.000000
0.098622 0.439871 0.000000
0.646764 0.048212 0.000000
0.533233 0.366043 0.000000
0.788023 0.703058 0.000000
0.758281 0.492421 0.000000
0.261281 0.220552 0.000000
0.503315 0.901417 0.000000
0.480202 0.145384 0.000000
0.201349 0.463521 0.000000
0.556287 0.663530 0.000000
0.561032 0.521728 0.000000
0.356357 0.707210 0.000000
0.484539 0.750808 0.000000
0.251187 0.165926 0.000000
0.418383 0.949722 0.000000
0.852775 0.468237 0.000000
0.538042 0.613517 0.000000
0.897016 0.894183 0.000000
0.949347 0.300909 0.000000
0.283066 0.332261 0.000000
0.510427 0.197788 0.000000
0.785167 0.902528 0.000000
0.641108 0.951954 0.000000
0.193135 0.097791 0.000000
0.424889 0.849453 0.000000
0.780656 0.238457 0.000000
0.048882 0.144293 0.000000
0.404870 0.689246 0.000000
0.309545 0.497938 0.000000
0.901502 0.328611 0.000000
0.663571 0.241503 0.000000
0.950636 0.694410 0.000000
0.217569 0.760450 0.000000
0.473824 0.051153 0.000000
0.094446 0.047334 0.000000
0.297992 0.809404 0.000000
0.370617 0.848662 0.000000
0.823419 0.048226 0.000000
0.378411 0.751315 0.000000
0.591519 0.382296 0.000000
0.046590 0.954677 0.000000
0.364044 0.950797 0.000000
0.092309 0.603267 0.000000
0.639745 0.436231 0.000000
0.745588 0.192191 0.000000
0.608239 0.238485 0.000000
0.195044 0.409619 0.000000
0.240782 0.111687 0.000000
0.048321 0.416446 0.000000
0.622213 0.095803 0.000000
0.375680 0.310647 0.000000
0.903505 0.496805 0.000000
0.468417 0.292972 0.000000
0.899745 0.667860 0.000000
0.950600 0.413987 0.000000
0.787903 0.799668 0.000000
0.292085 0.644550 0.000000
0.183651 0.301646 0.000000
0.619945 0.810764 0.000000
0.950732 0.128013 0.000000
0.193923 0.659676 0.000000
0.134075 0.900617 0.000000
0.149198 0.450207 0.000000
0.951783 0.582932 0.000000
0.255475 0.480168 0.000000
0.363358 0.049209 0.000000
0.949540 0.244537 0.000000
0.235428 0.903386 0.000000
0.426708 0.329261 0.000000
0.445594 0.439747 0.000000
0.242582 0.808382 0.000000
0.219130 0.259382 0.000000
0.719713 0.541008 0.000000
0.563990 0.807018 0.000000
0.154882 0.852096 0.000000
0.945861 0.059409 0.000000
0.860018 0.949532 0.000000
0.346726 0.798991 0.000000
0.460941 0.237014 0.000000
0.154766 0.503229 0.000000
0.321466 0.750351 0.000000
0.052670 0.747823 0.000000
0.047046 0.636906 0.000000
0.187764 0.607825 0.000000
0.188208 0.804764 0.000000
0.362972 0.516743 0.000000
0.050733 0.195997 0.000000
0.807154 0.390617 0.000000
0.721194 0.241271 0.000000
0.850277 0.356118 0.000000
0.645378 0.858274 0.000000
0.209546 0.854213 0.000000
POLYGONS 748 2992
3 0 139 71
3 139 0 4
3 71 139 87
3 139 353 87
3 353 139 4
3 353 4 5
3 87 353 72
3 71 87 70
3 69 70 345
3 68 69 405
3 405 345 271
3 345 70 87
3 72 114 87
3 345 405 69
3 345 87 114
3 268 68 405
3 353 314 72
3 314 129 72
3 314 5 6
3 129 314 140
3 72 129 114
3 6 7 140
3 342 140 199
3 6 140 314
3 129 140 342
3 114 305 271
3 114 129 305
3 271 305 174
3 114 271 345
3 278 174 305
3 278 342 366
3 271 174 179
3 104 174 278
3 278 332 104
3 278 305 342
3 129 342 305
3 405 271 179
3 104 324 390
3 314 353 5
3 303 174 104
3 67 91 66
3 91 67 268
3 182 66 91
3 309 203 91
3 309 268 179
3 203 309 163
3 309 91 268
3 67 68 268
3 182 91 203
3 64 65 367
3 182 65 66
3 367 65 182
3 367 255 319
3 255 367 182
3 219 319 265
3 319 219 367
3 255 152 319
3 367 219 64
3 182 203 255
3 64 219 63
3 203 194 255
3 179 303 163
3 303 179 174
3 163 303 376
3 163 194 203
3 376 390 202
3 390 376 303
3 256 202 390
3 163 376 194
3 303 104 390
3 165 376 202
3 152 381 319
3 255 194 152
3 152 194 165
3 319 381 265
3 365 381 152
3 365 165 217
3 265 381 398
3 327 381 365
3 365 250 327
3 365 152 165
3 194 376 165
3 327 398 381
3 217 165 202
3 309 179 163
3 268 405 179
3 219 265 175
3 199 140 7
3 301 199 242
3 8 199 7
3 242 199 8
3 199 301 366
3 253 242 384
3 9 242 8
3 75 253 310
3 242 253 301
3 301 253 283
3 332 324 104
3 332 366 283
3 324 332 105
3 324 256 390
3 283 75 105
3 283 366 301
3 105 75 107
3 283 105 332
3 253 75 283
3 223 324 105
3 384 242 9
3 199 366 342
3 310 384 82
3 10 384 9
3 82 384 10
3 277 75 310
3 82 11 352
3 11 82 10
3 352 11 12
3 310 82 201
3 201 82 352
3 107 277 160
3 75 277 107
3 160 277 294
3 299 107 160
3 326 294 277
3 187 326 201
3 397 160 294
3 339 397 294
3 397 171 371
3 277 201 326
3 310 201 277
3 105 107 223
3 201 352 187
3 310 253 384
3 103 160 397
3 338 256 124
3 223 256 324
3 124 256 223
3 338 217 202
3 93 124 369
3 299 124 223
3 173 93 128
3 124 93 338
3 223 107 299
3 338 93 193
3 250 142 383
3 193 250 217
3 250 383 327
3 217 250 365
3 193 173 142
3 173 193 93
3 383 142 347
3 181 142 173
3 181 173 147
3 193 142 250
3 217 338 193
3 181 347 142
3 299 369 124
3 202 256 338
3 128 369 387
3 103 369 299
3 387 369 103
3 369 128 93
3 387 371 280
3 371 387 103
3 280 371 130
3 128 387 196
3 103 397 371
3 196 387 280
3 214 147 388
3 196 147 128
3 388 147 196
3 147 214 181
3 388 249 308
3 249 388 196
3 218 123 205
3 308 123 388
3 308 249 241
3 388 123 214
3 196 280 249
3 404 181 214
3 280 321 249
3 128 147 173
3 299 160 103
3 125 327 383
3 339 294 326
3 332 278 366
3 123 145 214
3 62 63 175
3 61 62 261
3 361 261 289
3 175 261 62
3 289 261 175
3 61 261 401
3 219 175 63
3 401 261 361
3 59 60 189
3 401 60 61
3 189 60 401
3 400 189 231
3 146 189 401
3 231 189 146
3 189 400 59
3 401 361 146
3 59 400 58
3 361 243 146
3 180 289 225
3 289 175 265
3 225 289 398
3 243 361 180
3 402 225 126
3 125 225 398
3 379 402 273
3 225 402 180
3 327 125 398
3 180 402 243
3 74 231 290
3 146 243 290
3 231 146 290
3 231 74 400
3 290 379 120
3 379 290 243
3 177 120 351
3 120 177 290
3 351 120 94
3 290 177 74
3 243 402 379
3 74 177 235
3 208 120 379
3 180 361 289
3 289 265 398
3 400 74 133
3 57 58 232
3 56 57 281
3 232 133 281
3 232 58 400
3 80 281 127
3 232 281 57
3 133 232 400
3 56 281 101
3 3 55 359
3 101 55 56
3 359 55 101
3 167 359 101
3 380 167 80
3 359 54 3
3 54 359 167
3 167 53 54
3 167 101 80
3 101 281 80
3 127 281 133
3 127 235 393
3 235 127 133
3 393 235 403
3 127 393 380
3 410 403 389
3 403 235 177
3 410 386 213
3 403 410 393
3 133 74 235
3 393 410 213
3 167 293 53
3 167 380 293
3 293 380 213
3 53 293 52
3 98 52 293
3 98 213 386
3 51 52 98
3 98 137 51
3 98 293 213
3 380 393 213
3 389 403 351
3 380 80 127
3 403 177 351
3 125 126 225
3 126 154 115
3 126 125 154
3 115 154 291
3 273 126 115
3 291 263 212
3 258 212 143
3 291 212 115
3 347 291 154
3 383 154 125
3 375 115 212
3 208 266 94
3 375 208 273
3 94 120 208
3 208 379 273
3 375 258 266
3 375 273 115
3 94 266 210
3 330 399 266
3 266 258 330
3 375 266 208
3 212 258 375
3 210 266 399
3 404 291 347
3 94 210 351
3 404 145 263
3 404 214 145
3 263 145 238
3 143 212 263
3 238 218 252
3 218 238 145
3 292 252 218
3 238 252 106
3 347 181 404
3 263 238 143
3 258 346 330
3 258 143 346
3 346 143 106
3 357 330 346
3 200 198 346
3 200 106 222
3 198 357 346
3 331 198 200
3 200 90 331
3 200 346 106
3 143 238 106
3 399 330 357
3 252 222 106
3 263 291 404
3 218 145 123
3 184 198 331
3 228 389 354
3 389 351 210
3 354 389 210
3 228 386 410
3 354 396 247
3 354 210 399
3 121 247 355
3 354 247 228
3 396 354 399
3 228 247 236
3 137 209 50
3 236 137 386
3 137 50 51
3 386 137 98
3 236 121 209
3 236 386 228
3 209 49 50
3 360 49 209
3 209 121 360
3 236 209 137
3 247 121 236
3 247 396 355
3 410 389 228
3 396 264 355
3 264 396 357
3 357 198 264
3 355 264 343
3 343 184 298
3 184 343 264
3 99 298 184
3 355 343 239
3 198 184 264
3 246 343 298
3 48 360 333
3 360 121 239
3 333 360 239
3 360 48 49
3 333 246 96
3 246 333 239
3 47 96 46
3 96 47 333
3 96 246 325
3 333 47 48
3 239 343 246
3 325 246 298
3 239 121 355
3 399 357 396
3 99 184 331
3 126 273 402
3 154 383 347
3 308 205 123
3 116 187 352
3 116 12 13
3 187 116 97
3 316 326 187
3 230 97 116
3 230 13 14
3 315 97 368
3 230 116 13
3 187 97 316
3 262 339 272
3 339 326 316
3 272 339 316
3 339 262 171
3 364 272 297
3 315 272 316
3 315 297 272
3 272 364 262
3 316 97 315
3 262 364 166
3 368 97 230
3 397 339 171
3 320 368 230
3 320 14 15
3 161 368 320
3 89 315 368
3 15 16 81
3 302 81 113
3 15 81 320
3 161 320 81
3 89 297 315
3 89 368 161
3 89 161 158
3 297 89 240
3 363 158 185
3 158 240 89
3 349 297 240
3 363 240 158
3 407 363 344
3 158 161 302
3 161 81 302
3 364 297 349
3 81 16 113
3 230 14 320
3 407 240 363
3 171 166 130
3 166 364 157
3 130 166 224
3 321 280 130
3 224 157 234
3 157 224 166
3 234 157 168
3 224 234 358
3 171 262 166
3 130 224 321
3 241 229 308
3 241 321 358
3 229 241 227
3 249 321 241
3 358 227 241
3 362 227 84
3 88 362 108
3 362 88 227
3 84 227 358
3 227 88 229
3 321 224 358
3 229 88 329
3 358 234 84
3 308 229 205
3 168 349 95
3 168 157 364
3 95 349 407
3 170 168 95
3 150 211 95
3 344 150 407
3 151 110 211
3 150 95 407
3 349 240 407
3 170 95 211
3 362 118 108
3 84 234 170
3 110 84 170
3 118 362 84
3 118 110 206
3 110 118 84
3 135 206 323
3 206 135 118
3 170 211 110
3 118 135 108
3 110 151 206
3 221 108 135
3 211 150 176
3 170 234 168
3 168 364 349
3 88 108 267
3 185 158 302
3 371 171 130
3 131 113 356
3 17 113 16
3 356 113 17
3 131 185 302
3 356 18 144
3 18 356 17
3 144 18 19
3 131 356 207
3 207 356 144
3 132 344 363
3 132 185 276
3 344 132 102
3 150 344 311
3 109 276 313
3 276 185 131
3 102 109 122
3 102 132 109
3 313 276 207
3 109 132 276
3 131 207 276
3 344 102 311
3 207 144 117
3 363 185 132
3 144 394 117
3 144 20 394
3 117 313 207
3 20 21 394
3 21 20 1
3 117 394 378
3 22 394 21
3 313 172 122
3 172 313 378
3 385 122 172
3 313 122 109
3 378 22 23
3 22 378 394
3 24 172 23
3 23 172 378
3 313 117 378
3 102 122 233
3 19 20 144
3 24 385 172
3 408 176 119
3 151 211 176
3 119 176 311
3 406 176 408
3 348 408 119
3 119 311 102
3 348 119 233
3 408 348 304
3 233 119 102
3 197 408 304
3 206 237 323
3 237 206 151
3 237 151 406
3 323 237 148
3 197 334 237
3 197 406 408
3 251 148 334
3 148 237 334
3 334 197 279
3 237 406 197
3 151 176 406
3 135 323 391
3 197 304 279
3 150 311 176
3 233 337 348
3 337 233 385
3 337 385 25
3 348 337 134
3 337 26 134
3 26 337 25
3 134 26 27
3 385 24 25
3 373 304 134
3 370 279 141
3 279 304 373
3 141 279 373
3 279 370 334
3 28 141 373
3 370 141 284
3 29 141 28
3 28 373 27
3 373 134 27
3 251 334 370
3 134 304 348
3 122 385 233
3 29 284 141
3 302 113 131
3 148 248 323
3 292 188 335
3 329 292 205
3 335 222 252
3 335 252 292
3 188 83 254
3 267 188 329
3 188 254 335
3 329 188 292
3 329 88 267
3 335 254 328
3 90 244 85
3 328 90 222
3 85 99 331
3 85 331 90
3 328 274 244
3 269 244 192
3 244 269 85
3 328 244 90
3 222 335 328
3 85 269 392
3 274 328 254
3 218 205 292
3 267 221 83
3 267 108 221
3 83 221 153
3 73 254 83
3 153 391 76
3 391 153 221
3 76 391 248
3 153 76 245
3 135 391 221
3 83 153 73
3 192 274 79
3 274 254 73
3 79 274 73
3 274 192 244
3 79 245 190
3 245 79 73
3 138 306 296
3 190 306 79
3 190 245 178
3 79 306 192
3 73 153 245
3 269 192 78
3 296 306 190
3 83 188 267
3 329 205 229
3 78 192 306
3 298 204 325
3 298 99 204
3 204 99 392
3 220 325 204
3 392 377 92
3 377 392 269
3 77 92 409
3 392 92 204
3 99 85 392
3 220 204 92
3 46 149 45
3 46 96 149
3 45 149 86
3 220 77 86
3 77 220 92
3 86 44 45
3 341 44 86
3 341 86 77
3 220 86 149
3 149 325 220
3 409 92 377
3 96 325 149
3 377 215 409
3 215 377 78
3 215 78 138
3 409 215 260
3 215 186 260
3 186 215 138
3 296 186 138
3 191 260 318
3 78 306 138
3 409 260 100
3 43 341 112
3 341 77 100
3 112 341 100
3 341 43 44
3 191 270 112
3 340 270 191
3 112 42 43
3 42 112 270
3 270 41 42
3 191 112 100
3 100 260 191
3 186 318 260
3 100 77 409
3 78 377 269
3 76 178 245
3 222 90 200
3 248 307 183
3 248 148 307
3 183 307 287
3 183 178 76
3 155 136 287
3 287 136 183
3 251 287 307
3 372 162 136
3 391 323 248
3 183 136 164
3 190 322 296
3 190 178 322
3 322 178 164
3 296 322 226
3 162 226 322
3 162 164 136
3 300 226 286
3 286 226 162
3 286 162 159
3 162 322 164
3 178 183 164
3 296 226 374
3 156 287 251
3 76 248 183
3 155 156 382
3 156 251 370
3 382 156 284
3 155 372 136
3 382 30 31
3 30 382 284
3 155 382 195
3 284 29 30
3 195 382 31
3 159 350 257
3 350 159 372
3 286 159 282
3 372 159 162
3 195 32 350
3 32 195 31
3 350 33 257
3 33 350 32
3 195 350 372
3 372 155 195
3 257 33 34
3 155 287 156
3 307 148 251
3 257 282 159
3 318 374 295
3 318 186 374
3 295 374 300
3 340 318 295
3 275 111 336
3 111 275 300
3 295 275 317
3 300 275 295
3 226 300 374
3 336 317 275
3 270 285 41
3 270 340 285
3 285 340 317
3 41 285 40
3 395 40 285
3 317 336 395
3 39 40 395
3 395 288 39
3 395 285 317
3 340 295 317
3 395 336 288
3 340 191 318
3 111 259 216
3 259 111 282
3 216 312 336
3 282 111 300
3 259 34 35
3 259 282 257
3 259 35 216
3 257 34 259
3 216 35 36
3 38 288 169
3 288 336 312
3 169 288 312
3 288 38 39
3 37 169 312
3 169 2 38
3 2 169 37
3 37 312 36
3 312 216 36
3 336 111 216
3 286 282 300
3 374 186 296
3 284 156 370
3 12 116 352
POINT_DATA 411
SCALARS P float 1
LOOKUP_TABLE default
13246297159.214378
13246298745.125410
13246297714.987841
13246298751.608160
13246299474.756138
13246298546.109358
13246298888.530695
13246298741.672314
13246298786.094103
13246298797.994474
13246298749.277300
13246298771.223267
13246298756.550541
13246298767.593433
13246298760.136566
13246298763.958126
13246298758.821547
13246298760.779219
13246298757.395638
13246298757.757307
13246298754.591434
13246298752.856651
13246298751.741419
13246298750.314407
13246298752.987658
13246298754.802170
13246298751.004976
13246298757.154770
13246298754.088818
13246298748.178911
13246298763.081060
13246298737.054781
13246298764.033218
13246298747.897921
13246298737.113459
13246298815.574432
13246298622.225939
13246299221.260910
13246299241.600281
13246298633.431751
13246298823.373362
13246298741.652691
13246298754.829964
13246298772.666330
13246298749.873627
13246298769.755482
13246298752.455219
13246298762.618616
13246298754.714336
13246298758.945755
13246298765.839579
13246298755.458870
13246298770.984257
13246298752.380672
13246298778.763586
13246298776.951679
13246298753.259859
13246298769.125929
13246298757.909468
13246298760.468645
13246298757.702885
13246298763.752674
13246298753.099945
13246298755.906181
13246298767.034603
13246298750.638363
13246298785.528227
13246298783.486742
13246298719.560171
13246298884.059282
13246298543.429996
13246299463.311218
13246298718.925150
13246298750.400785
13246298744.978458
13246298742.668133
13246298749.643442
13246298754.492577
13246298743.379238
13246298749.100451
13246298763.876230
13246298746.443937
13246298741.657253
13246298751.734715
13246298753.025347
13246298746.934607
13246298742.144985
13246298953.156460
13246298754.219612
13246298746.471437
13246298757.352608
13246298711.404627
13246298746.273214
13246298744.510044
13246298749.759588
13246298754.592682
13246298748.561304
13246298758.903656
13246298746.884497
13246298759.182951
13246298764.934790
13246298758.179443
13246298748.169508
13246298754.478170
13246298756.339153
13246298762.852205
13246298745.471079
13246298762.284548
13246298751.245378
13246298755.230974
13246298754.243917
13246298773.837360
13246298730.112211
13246298745.512125
13246298763.648226
13246298756.394995
13246298742.565960
13246298753.562122
13246298751.659058
13246298750.983831
13246298762.834494
13246298756.900726
13246298751.788832
13246298753.902100
13246298758.531343
13246298754.621975
13246298748.264204
13246298751.826004
13246298753.037552
13246298772.381538
13246298753.192333
13246298756.631414
13246298755.062088
13246298769.538927
13246298752.657475
13246298754.136139
13246298755.943604
13246298746.083126
13246298752.688826
13246298060.861179
13246298726.592886
13246298755.084105
13246298752.135117
13246298755.520582
13246298747.572029
13246298750.820107
13246298749.201082
13246298755.983423
13246298754.825249
13246298746.747606
13246298752.243366
13246298750.567951
13246298755.654629
13246298752.966272
13246298750.102793
13246298744.494358
13246298759.401384
13246298754.485289
13246298746.202202
13246298751.461220
13246298750.721973
13246298757.471684
13246298749.295366
13246298743.785257
13246298745.721998
13246298751.651773
13246298754.290205
13246298761.884727
13246298754.370634
13246298288.354492
13246298749.447138
13246298749.185951
13246298752.923410
13246298751.594933
13246298763.350037
13246298753.364227
13246298750.240873
13246298745.311085
13246298749.751268
13246298719.385416
13246298748.745724
13246298744.553543
13246298751.957302
13246298757.177973
13246298754.794416
13246298747.579525
13246298753.578686
13246298762.696106
13246298751.430128
13246298749.759333
13246298750.061731
13246298753.250210
13246298754.504711
13246298760.585312
13246298737.244377
13246298761.825573
13246298753.014450
13246298748.699751
13246298749.126381
13246298751.724760
13246298756.713629
13246298759.882370
13246298748.730864
13246298760.767345
13246298747.205439
13246298756.671640
13246298750.697357
13246298756.252575
13246298748.135796
13246298740.966377
13246298752.724829
13246298750.868343
13246298756.314037
13246298768.435144
13246298755.125471
13246298756.810804
13246298732.375530
13246298748.833069
13246298747.085989
13246298744.297314
13246298761.839304
13246298750.722773
13246298747.832603
13246298741.274891
13246298750.289454
13246298747.416460
13246298747.330070
13246298752.576044
13246298747.223295
13246298748.818451
13246298744.594923
13246298765.016737
13246298745.585661
13246298753.824692
13246298749.341444
13246298748.861069
13246298763.268408
13246298752.048988
13246298753.578863
13246298753.337906
13246298756.219263
13246298750.942301
13246298702.577595
13246298744.269400
13246298753.614220
13246298754.606792
13246298759.312647
13246298742.783060
13246298752.504049
13246298758.317425
13246298745.427418
13246298751.974194
13246298758.059853
13246298759.661604
13246298753.644485
13246298756.009052
13246298759.249100
13246298771.536619
13246298741.764076
13246298735.059423
13246298745.521027
13246298745.264063
13246298747.147432
13246298750.300406
13246298755.518064
13246298758.471643
13246298759.728888
13246298751.791843
13246298755.654209
13246298750.837305
13246298770.166906
13246298792.485415
13246298759.031719
13246298748.936718
13246298751.858685
13246298743.979069
13246298746.951067
13246298744.310400
13246298750.895233
13246298756.580883
13246298747.544968
13246298736.065647
13246298743.198498
13246298733.346058
13246298748.432556
13246298725.482817
13246298754.781168
13246298749.227686
13246298833.424656
13246298746.404369
13246298751.563887
13246298745.762150
13246298748.352402
13246298735.610186
13246298764.468290
13246298744.911934
13246298745.922218
13246298757.366705
13246298746.662607
13246298746.214878
13246298753.447626
13246298799.002920
13246298758.228155
13246298751.881050
13246298753.457586
13246298708.748220
13246298756.635820
13246298748.724464
13246298750.574621
13246298786.394547
13246298759.061813
13246298755.531954
13246298848.010971
13246298749.238607
13246298673.417278
13246298741.994720
13246298746.426683
13246298776.211939
13246298751.348606
13246298757.939520
13246298743.316525
13246298749.783937
13246298760.428068
13246298749.802948
13246298748.649504
13246298753.500071
13246298737.616655
13246298755.215347
13246298748.049622
13246298751.756987
13246298757.714731
13246298746.045992
13246298760.426670
13246298745.387684
13246298750.616518
13246298753.768465
13246298717.155621
13246298750.348158
13246298748.766575
13246298757.910986
13246298752.249336
13246298752.493004
13246298802.496754
13246298747.599483
13246298748.883617
13246298667.946373
13246298753.782406
13246298758.738041
13246298752.332462
13246298747.713459
13246298736.232941
13246298743.641336
13246298746.036160
13246298939.945869
13246298759.848345
13246298750.222101
13246298747.553541
13246298748.532364
13246298754.241945
13246298716.940639
13246298751.521658
13246298766.581779
13246298749.158985
13246298755.652376
13246298747.856527
13246298759.480352
13246298716.543951
13246298744.897449
13246298761.829977
13246298755.216080
13246298747.819160
13246298758.418045
13246298755.556330
13246298745.612122
13246298757.612600
13246298751.329861
13246298766.647156
13246298759.781164
13246298751.723249
13246298748.981005
13246298750.573721
13246298737.902336
13246298749.338743
13246298749.527742
13246298753.523787
13246298750.198977
13246298751.975611
13246298747.665478
13246298744.883823
13246298751.770390
13246298742.980688
13246298751.716972
13246298753.105419
13246298740.205145
13246298750.328842
13246298734.852383
13246298755.068748
13246298742.870369
13246298755.964964
13246298743.578781
13246298742.991545
13246298742.804167
13246298762.196386
13246298767.373322
13246298753.704760
13246298745.668926
13246298755.342672
13246298748.993538
13246298750.688808
13246298743.944717
13246298744.925013
