# vtk DataFile Version 2.0
patchtest_tri3_mix
ASCII
DATASET POLYDATA
POINTS 66 float
0.000000 0.000000 0.000000
48.000000 44.000000 0.000000
48.000000 60.000000 0.000000
0.000000 44.000000 0.000000
4.800000 4.400000 0.000000
9.600000 8.800000 0.000000
14.400000 13.200000 0.000000
19.200000 17.600000 0.000000
24.000000 22.000000 0.000000
28.800000 26.400000 0.000000
33.600000 30.800000 0.000000
38.400000 35.200000 0.000000
43.200000 39.600000 0.000000
48.000000 47.200000 0.000000
48.000000 50.400000 0.000000
48.000000 53.600000 0.000000
48.000000 56.800000 0.000000
43.200000 58.400000 0.000000
38.400000 56.800000 0.000000
33.600000 55.200000 0.000000
28.800000 53.600000 0.000000
24.000000 52.000000 0.000000
19.200000 50.400000 0.000000
14.400000 48.800000 0.000000
9.600000 47.200000 0.000000
4.800000 45.600000 0.000000
0.000000 35.200000 0.000000
0.000000 26.400000 0.000000
0.000000 17.600000 0.000000
0.000000 8.800000 0.000000
4.800000 12.640000 0.000000
4.800000 20.880000 0.000000
4.800000 29.120000 0.000000
4.800000 37.360000 0.000000
9.600000 16.480000 0.000000
9.600000 24.160000 0.000000
9.600000 31.840000 0.000000
9.600000 39.520000 0.000000
14.400000 20.320000 0.000000
14.400000 27.440000 0.000000
14.400000 34.560000 0.000000
14.400000 41.680000 0.000000
19.200000 24.160000 0.000000
19.200000 30.720000 0.000000
19.200000 37.280000 0.000000
19.200000 43.840000 0.000000
24.000000 28.000000 0.000000
24.000000 34.000000 0.000000
24.000000 40.000000 0.000000
24.000000 46.000000 0.000000
28.800000 31.840000 0.000000
28.800000 37.280000 0.000000
28.800000 42.720000 0.000000
28.800000 48.160000 0.000000
33.600000 35.680000 0.000000
33.600000 40.560000 0.000000
33.600000 45.440000 0.000000
33.600000 50.320000 0.000000
38.400000 39.520000 0.000000
38.400000 43.840000 0.000000
38.400000 48.160000 0.000000
38.400000 52.480000 0.000000
43.200000 43.360000 0.000000
43.200000 47.120000 0.000000
43.200000 50.880000 0.000000
43.200000 54.640000 0.000000
POLYGONS 100 400
3 0 4 29
3 29 4 30
3 29 30 28
3 28 30 31
3 28 31 27
3 27 31 32
3 27 32 26
3 26 32 33
3 26 33 3
3 3 33 25
3 4 5 30
3 30 5 34
3 30 34 31
3 31 34 35
3 31 35 32
3 32 35 36
3 32 36 33
3 33 36 37
3 33 37 25
3 25 37 24
3 5 6 34
3 34 6 38
3 34 38 35
3 35 38 39
3 35 39 36
3 36 39 40
3 36 40 37
3 37 40 41
3 37 41 24
3 24 41 23
3 6 7 38
3 38 7 42
3 38 42 39
3 39 42 43
3 39 43 40
3 40 43 44
3 40 44 41
3 41 44 45
3 41 45 23
3 23 45 22
3 7 8 42
3 42 8 46
3 42 46 43
3 43 46 47
3 43 47 44
3 44 47 48
3 44 48 45
3 45 48 49
3 45 49 22
3 22 49 21
3 8 9 46
3 46 9 50
3 46 50 47
3 47 50 51
3 47 51 48
3 48 51 52
3 48 52 49
3 49 52 53
3 49 53 21
3 21 53 20
3 9 10 50
3 50 10 54
3 50 54 51
3 51 54 55
3 51 55 52
3 52 55 56
3 52 56 53
3 53 56 57
3 53 57 20
3 20 57 19
3 10 11 54
3 54 11 58
3 54 58 55
3 55 58 59
3 55 59 56
3 56 59 60
3 56 60 57
3 57 60 61
3 57 61 19
3 19 61 18
3 11 12 58
3 58 12 62
3 58 62 59
3 59 62 63
3 59 63 60
3 60 63 64
3 60 64 61
3 61 64 65
3 61 65 18
3 18 65 17
3 12 1 62
3 62 1 13
3 62 13 63
3 63 13 14
3 63 14 64
3 64 14 15
3 64 15 65
3 65 15 16
3 65 16 17
3 17 16 2
POINT_DATA 66
SCALARS P float 1
LOOKUP_TABLE default
6.857611
27.791155
-31.476568
-88.240009
4.827634
2.266274
15.652041
2.268399
4.092019
40.414241
-12.281063
5.501818
50.663567
-131.642529
177.253501
-142.689568
145.172081
-65.906356
71.894261
-100.215353
55.281717
-35.072352
-29.958140
60.822502
-130.029267
114.713723
4.653930
13.094201
9.004554
3.171240
13.501583
1.769343
-35.668954
30.309437
-6.738846
43.513629
31.083521
-139.017940
2.928799
-70.868078
54.835340
169.151501
52.416256
37.660298
-141.255650
-143.621630
-43.956680
67.508592
134.840171
78.558403
0.212250
-96.622468
-71.251394
-60.668648
96.104955
29.395361
64.838955
20.411288
-71.924448
44.424907
-103.705059
43.659549
-15.810520
74.107715
-14.380364
-28.423500
