# vtk DataFile Version 2.0
patchtest_tri3_mix
ASCII
DATASET POLYDATA
POINTS 25 float
0.000000 -0.500000 0.000000
1.000000 -0.500000 0.000000
1.000000 0.500000 0.000000
0.000000 0.500000 0.000000
0.250000 -0.500000 0.000000
0.500000 -0.500000 0.000000
0.750000 -0.500000 0.000000
1.000000 -0.250000 0.000000
1.000000 -0.000000 0.000000
1.000000 0.250000 0.000000
0.750000 0.500000 0.000000
0.500000 0.500000 0.000000
0.250000 0.500000 0.000000
0.000000 0.250000 0.000000
0.000000 0.000000 0.000000
0.000000 -0.250000 0.000000
0.234477 -0.260741 0.000000
0.270225 -0.010606 0.000000
0.485547 -0.215585 0.000000
0.746510 -0.240225 0.000000
0.828181 0.239270 0.000000
0.707689 0.020517 0.000000
0.637946 0.293675 0.000000
0.231324 0.252422 0.000000
0.462409 0.172220 0.000000
POLYGONS 32 128
3 0 16 15
3 16 0 4
3 14 15 16
3 18 17 16
3 5 16 4
3 17 18 24
3 5 18 16
3 14 16 17
3 13 14 23
3 3 13 23
3 12 23 11
3 23 14 17
3 11 23 24
3 23 12 3
3 17 24 23
3 18 21 24
3 5 6 19
3 19 6 7
3 19 21 18
3 1 7 6
3 7 8 19
3 19 8 21
3 22 11 24
3 24 21 22
3 22 21 20
3 11 22 10
3 20 9 2
3 20 21 8
3 2 10 20
3 20 10 22
3 8 9 20
3 5 19 18
POINT_DATA 25
SCALARS P float 1
LOOKUP_TABLE default
2431.132753
19.694444
-3.789986
-3619.538712
2205.167713
1454.079156
588.980814
65.604195
43.877940
-94.662635
-871.177581
-1760.886189
-2090.809722
-86.493464
-124.116784
1875.692555
979.734291
8.483684
683.829783
407.796754
-148.085512
-153.825020
-311.397113
-1335.579453
-325.882749
