# vtk DataFile Version 2.0
patchtest_tri3_mix
ASCII
DATASET POLYDATA
POINTS 24 float
0.000000 -0.500000 0.000000
1.000000 -0.500000 0.000000
1.000000 0.500000 0.000000
0.000000 0.500000 0.000000
0.250000 -0.500000 0.000000
0.500000 -0.500000 0.000000
0.750000 -0.500000 0.000000
1.000000 -0.250000 0.000000
1.000000 -0.000000 0.000000
1.000000 0.250000 0.000000
0.750000 0.500000 0.000000
0.500000 0.500000 0.000000
0.250000 0.500000 0.000000
0.000000 0.250000 0.000000
0.000000 0.000000 0.000000
0.000000 -0.250000 0.000000
0.756881 -0.203647 0.000000
0.265216 -0.222130 0.000000
0.256537 0.224095 0.000000
0.517981 0.240052 0.000000
0.761367 0.288644 0.000000
0.519776 -0.276380 0.000000
0.749993 0.053580 0.000000
0.495152 -0.025205 0.000000
POLYGONS 30 120
3 0 4 15
3 15 4 17
3 23 17 21
3 4 21 17
3 19 18 23
3 15 17 14
3 18 17 23
3 13 14 18
3 3 13 12
3 12 18 11
3 18 12 13
3 19 11 18
3 14 17 18
3 5 21 4
3 21 6 16
3 6 21 5
3 16 6 7
3 23 16 22
3 1 7 6
3 7 8 16
3 22 16 8
3 11 20 10
3 19 23 22
3 20 19 22
3 20 11 19
3 20 9 2
3 9 20 22
3 20 2 10
3 22 8 9
3 23 21 16
POINT_DATA 24
SCALARS P float 1
LOOKUP_TABLE default
1903.787433
358.869800
667.105027
-3003.560562
2990.525832
-336.284782
-771.256928
833.332058
797.419347
-774.372738
-3163.912294
-1902.387824
-3009.112211
-1392.939341
323.447650
4404.794041
-553.632446
-2941.889270
-859.230650
1277.842222
3242.904415
7072.496950
-3488.377700
-1297.539796
