# vtk DataFile Version 2.0
cantilever_quad8_mix
ASCII
DATASET POLYDATA
POINTS 28 float
0.000000 0.000000 0.000000
48.000000 44.000000 0.000000
48.000000 60.000000 0.000000
0.000000 44.000000 0.000000
8.000000 7.333333 0.000000
16.000000 14.666667 0.000000
24.000000 22.000000 0.000000
32.000000 29.333333 0.000000
40.000000 36.666667 0.000000
48.000000 49.333333 0.000000
48.000000 54.666667 0.000000
40.000000 57.333333 0.000000
32.000000 54.666667 0.000000
24.000000 52.000000 0.000000
16.000000 49.333333 0.000000
8.000000 46.666667 0.000000
0.000000 29.333333 0.000000
0.000000 14.666667 0.000000
8.000000 20.444444 0.000000
8.000000 33.555556 0.000000
16.000000 26.222222 0.000000
16.000000 37.777778 0.000000
24.000000 32.000000 0.000000
24.000000 42.000000 0.000000
32.000000 37.777778 0.000000
32.000000 46.222222 0.000000
40.000000 43.555556 0.000000
40.000000 50.444444 0.000000
POLYGONS 36 144
3 0 4 17
3 17 4 18
3 17 18 16
3 16 18 19
3 16 19 3
3 3 19 15
3 4 5 18
3 18 5 20
3 18 20 19
3 19 20 21
3 19 21 15
3 15 21 14
3 5 6 20
3 20 6 22
3 20 22 21
3 21 22 23
3 21 23 14
3 14 23 13
3 6 7 22
3 22 7 24
3 22 24 23
3 23 24 25
3 23 25 13
3 13 25 12
3 7 8 24
3 24 8 26
3 24 26 25
3 25 26 27
3 25 27 12
3 12 27 11
3 8 1 26
3 26 1 9
3 26 9 27
3 27 9 10
3 27 10 11
3 11 10 2
POINT_DATA 28
SCALARS P float 1
LOOKUP_TABLE default
4.601640
5.639277
-0.351801
-24.771003
4.421089
8.122229
11.084406
12.677125
11.916303
3.700338
9.829906
-7.393036
-8.863563
-10.688759
-11.871474
-10.018838
5.982174
7.772357
4.701266
-2.137851
5.218161
-1.645818
4.882026
-0.317199
4.798951
0.149395
3.560517
1.600822
