# vtk DataFile Version 2.0
patchtest_tri3_mix
ASCII
DATASET POLYDATA
POINTS 16 float
0.000000 -0.500000 0.000000
1.000000 -0.500000 0.000000
1.000000 0.500000 0.000000
0.000000 0.500000 0.000000
0.333333 -0.500000 0.000000
0.666667 -0.500000 0.000000
1.000000 -0.166667 0.000000
1.000000 0.166667 0.000000
0.666667 0.500000 0.000000
0.333333 0.500000 0.000000
0.000000 0.166667 0.000000
0.000000 -0.166667 0.000000
0.417658 0.162328 0.000000
0.477651 -0.203814 0.000000
0.723509 -0.041633 0.000000
0.731487 0.257925 0.000000
POLYGONS 18 72
3 11 0 4
3 4 13 11
3 13 4 5
3 11 13 12
3 3 10 9
3 9 12 8
3 12 9 10
3 10 11 12
3 13 14 12
3 15 12 14
3 14 5 6
3 1 6 5
3 14 6 7
3 8 15 2
3 8 12 15
3 7 2 15
3 15 14 7
3 14 13 5
POINT_DATA 16
SCALARS P float 1
LOOKUP_TABLE default
3053.893799
-170.985947
-48.482189
-3064.112114
1846.990274
991.758800
208.522446
-176.732799
-1193.587747
-2063.243831
-469.880057
848.519854
-515.467793
619.723281
-54.679576
-23.736430
