# vtk DataFile Version 2.0
patchtest_tri3_mix
ASCII
DATASET POLYDATA
POINTS 28 float
0.000000 -0.500000 0.000000
1.000000 -0.500000 0.000000
1.000000 0.500000 0.000000
0.000000 0.500000 0.000000
0.250000 -0.500000 0.000000
0.500000 -0.500000 0.000000
0.750000 -0.500000 0.000000
1.000000 -0.250000 0.000000
1.000000 -0.000000 0.000000
1.000000 0.250000 0.000000
0.750000 0.500000 0.000000
0.500000 0.500000 0.000000
0.250000 0.500000 0.000000
0.000000 0.250000 0.000000
0.000000 0.000000 0.000000
0.000000 -0.250000 0.000000
0.607335 0.262180 0.000000
0.565624 -0.058113 0.000000
0.765982 0.060210 0.000000
0.765781 -0.212817 0.000000
0.311229 -0.121365 0.000000
0.207486 0.068241 0.000000
0.377275 0.304580 0.000000
0.178106 0.285996 0.000000
0.818358 0.294537 0.000000
0.434127 0.101963 0.000000
0.508694 -0.287034 0.000000
0.229991 -0.306925 0.000000
POLYGONS 38 152
3 15 0 27
3 14 15 20
3 4 5 27
3 27 20 15
3 26 20 27
3 20 17 25
3 4 27 0
3 14 20 21
3 13 23 3
3 23 13 21
3 3 23 12
3 21 25 22
3 25 21 20
3 12 22 11
3 12 23 22
3 25 16 22
3 22 23 21
3 13 14 21
3 26 27 5
3 17 26 19
3 6 26 5
3 19 26 6
3 16 25 17
3 7 19 6
3 17 19 18
3 8 19 7
3 7 6 1
3 18 19 8
3 11 16 10
3 11 22 16
3 10 16 24
3 18 9 24
3 9 18 8
3 24 2 10
3 2 24 9
3 18 24 16
3 16 17 18
3 17 20 26
POINT_DATA 28
SCALARS P float 1
LOOKUP_TABLE default
2637.610546
-201.531330
99.167011
-1986.848020
3113.692522
1434.097856
626.171735
222.885744
-522.355663
-2249.165397
-2000.564576
-1265.112512
-4078.906042
34.656296
576.377979
2491.197920
-2687.008309
-211.501742
438.924080
416.435324
1408.688854
-1506.169812
1530.485591
-3149.099612
2995.194165
-31.082754
896.110287
211.733382
