# vtk DataFile Version 2.0
patchtest_tri3_mix
ASCII
DATASET POLYDATA
POINTS 496 float
0.000000 0.000000 0.000000
48.000000 44.000000 0.000000
48.000000 60.000000 0.000000
0.000000 44.000000 0.000000
1.600000 1.466667 0.000000
3.200000 2.933333 0.000000
4.800000 4.400000 0.000000
6.400000 5.866667 0.000000
8.000000 7.333333 0.000000
9.600000 8.800000 0.000000
11.200000 10.266667 0.000000
12.800000 11.733333 0.000000
14.400000 13.200000 0.000000
16.000000 14.666667 0.000000
17.600000 16.133333 0.000000
19.200000 17.600000 0.000000
20.800000 19.066667 0.000000
22.400000 20.533333 0.000000
24.000000 22.000000 0.000000
25.600000 23.466667 0.000000
27.200000 24.933333 0.000000
28.800000 26.400000 0.000000
30.400000 27.866667 0.000000
32.000000 29.333333 0.000000
33.600000 30.800000 0.000000
35.200000 32.266667 0.000000
36.800000 33.733333 0.000000
38.400000 35.200000 0.000000
40.000000 36.666667 0.000000
41.600000 38.133333 0.000000
43.200000 39.600000 0.000000
44.800000 41.066667 0.000000
46.400000 42.533333 0.000000
48.000000 45.066667 0.000000
48.000000 46.133333 0.000000
48.000000 47.200000 0.000000
48.000000 48.266667 0.000000
48.000000 49.333333 0.000000
48.000000 50.400000 0.000000
48.000000 51.466667 0.000000
48.000000 52.533333 0.000000
48.000000 53.600000 0.000000
48.000000 54.666667 0.000000
48.000000 55.733333 0.000000
48.000000 56.800000 0.000000
48.000000 57.866667 0.000000
48.000000 58.933333 0.000000
46.400000 59.466667 0.000000
44.800000 58.933333 0.000000
43.200000 58.400000 0.000000
41.600000 57.866667 0.000000
40.000000 57.333333 0.000000
38.400000 56.800000 0.000000
36.800000 56.266667 0.000000
35.200000 55.733333 0.000000
33.600000 55.200000 0.000000
32.000000 54.666667 0.000000
30.400000 54.133333 0.000000
28.800000 53.600000 0.000000
27.200000 53.066667 0.000000
25.600000 52.533333 0.000000
24.000000 52.000000 0.000000
22.400000 51.466667 0.000000
20.800000 50.933333 0.000000
19.200000 50.400000 0.000000
17.600000 49.866667 0.000000
16.000000 49.333333 0.000000
14.400000 48.800000 0.000000
12.800000 48.266667 0.000000
11.200000 47.733333 0.000000
9.600000 47.200000 0.000000
8.000000 46.666667 0.000000
6.400000 46.133333 0.000000
4.800000 45.600000 0.000000
3.200000 45.066667 0.000000
1.600000 44.533333 0.000000
0.000000 41.066667 0.000000
0.000000 38.133333 0.000000
0.000000 35.200000 0.000000
0.000000 32.266667 0.000000
0.000000 29.333333 0.000000
0.000000 26.400000 0.000000
0.000000 23.466667 0.000000
0.000000 20.533333 0.000000
0.000000 17.600000 0.000000
0.000000 14.666667 0.000000
0.000000 11.733333 0.000000
0.000000 8.800000 0.000000
0.000000 5.866667 0.000000
0.000000 2.933333 0.000000
1.600000 4.337778 0.000000
1.600000 7.208889 0.000000
1.600000 10.080000 0.000000
1.600000 12.951111 0.000000
1.600000 15.822222 0.000000
1.600000 18.693333 0.000000
1.600000 21.564444 0.000000
1.600000 24.435556 0.000000
1.600000 27.306667 0.000000
1.600000 30.177778 0.000000
1.600000 33.048889 0.000000
1.600000 35.920000 0.000000
1.600000 38.791111 0.000000
1.600000 41.662222 0.000000
3.200000 5.742222 0.000000
3.200000 8.551111 0.000000
3.200000 11.360000 0.000000
3.200000 14.168889 0.000000
3.200000 16.977778 0.000000
3.200000 19.786667 0.000000
3.200000 22.595556 0.000000
3.200000 25.404444 0.000000
3.200000 28.213333 0.000000
3.200000 31.022222 0.000000
3.200000 33.831111 0.000000
3.200000 36.640000 0.000000
3.200000 39.448889 0.000000
3.200000 42.257778 0.000000
4.800000 7.146667 0.000000
4.800000 9.893333 0.000000
4.800000 12.640000 0.000000
4.800000 15.386667 0.000000
4.800000 18.133333 0.000000
4.800000 20.880000 0.000000
4.800000 23.626667 0.000000
4.800000 26.373333 0.000000
4.800000 29.120000 0.000000
4.800000 31.866667 0.000000
4.800000 34.613333 0.000000
4.800000 37.360000 0.000000
4.800000 40.106667 0.000000
4.800000 42.853333 0.000000
6.400000 8.551111 0.000000
6.400000 11.235556 0.000000
6.400000 13.920000 0.000000
6.400000 16.604444 0.000000
6.400000 19.288889 0.000000
6.400000 21.973333 0.000000
6.400000 24.657778 0.000000
6.400000 27.342222 0.000000
6.400000 30.026667 0.000000
6.400000 32.711111 0.000000
6.400000 35.395556 0.000000
6.400000 38.080000 0.000000
6.400000 40.764444 0.000000
6.400000 43.448889 0.000000
8.000000 9.955556 0.000000
8.000000 12.577778 0.000000
8.000000 15.200000 0.000000
8.000000 17.822222 0.000000
8.000000 20.444444 0.000000
8.000000 23.066667 0.000000
8.000000 25.688889 0.000000
8.000000 28.311111 0.000000
8.000000 30.933333 0.000000
8.000000 33.555556 0.000000
8.000000 36.177778 0.000000
8.000000 38.800000 0.000000
8.000000 41.422222 0.000000
8.000000 44.044444 0.000000
9.600000 11.360000 0.000000
9.600000 13.920000 0.000000
9.600000 16.480000 0.000000
9.600000 19.040000 0.000000
9.600000 21.600000 0.000000
9.600000 24.160000 0.000000
9.600000 26.720000 0.000000
9.600000 29.280000 0.000000
9.600000 31.840000 0.000000
9.600000 34.400000 0.000000
9.600000 36.960000 0.000000
9.600000 39.520000 0.000000
9.600000 42.080000 0.000000
9.600000 44.640000 0.000000
11.200000 12.764444 0.000000
11.200000 15.262222 0.000000
11.200000 17.760000 0.000000
11.200000 20.257778 0.000000
11.200000 22.755556 0.000000
11.200000 25.253333 0.000000
11.200000 27.751111 0.000000
11.200000 30.248889 0.000000
11.200000 32.746667 0.000000
11.200000 35.244444 0.000000
11.200000 37.742222 0.000000
11.200000 40.240000 0.000000
11.200000 42.737778 0.000000
11.200000 45.235556 0.000000
12.800000 14.168889 0.000000
12.800000 16.604444 0.000000
12.800000 19.040000 0.000000
12.800000 21.475556 0.000000
12.800000 23.911111 0.000000
12.800000 26.346667 0.000000
12.800000 28.782222 0.000000
12.800000 31.217778 0.000000
12.800000 33.653333 0.000000
12.800000 36.088889 0.000000
12.800000 38.524444 0.000000
12.800000 40.960000 0.000000
12.800000 43.395556 0.000000
12.800000 45.831111 0.000000
14.400000 15.573333 0.000000
14.400000 17.946667 0.000000
14.400000 20.320000 0.000000
14.400000 22.693333 0.000000
14.400000 25.066667 0.000000
14.400000 27.440000 0.000000
14.400000 29.813333 0.000000
14.400000 32.186667 0.000000
14.400000 34.560000 0.000000
14.400000 36.933333 0.000000
14.400000 39.306667 0.000000
14.400000 41.680000 0.000000
14.400000 44.053333 0.000000
14.400000 46.426667 0.000000
16.000000 16.977778 0.000000
16.000000 19.288889 0.000000
16.000000 21.600000 0.000000
16.000000 23.911111 0.000000
16.000000 26.222222 0.000000
16.000000 28.533333 0.000000
16.000000 30.844444 0.000000
16.000000 33.155556 0.000000
16.000000 35.466667 0.000000
16.000000 37.777778 0.000000
16.000000 40.088889 0.000000
16.000000 42.400000 0.000000
16.000000 44.711111 0.000000
16.000000 47.022222 0.000000
17.600000 18.382222 0.000000
17.600000 20.631111 0.000000
17.600000 22.880000 0.000000
17.600000 25.128889 0.000000
17.600000 27.377778 0.000000
17.600000 29.626667 0.000000
17.600000 31.875556 0.000000
17.600000 34.124444 0.000000
17.600000 36.373333 0.000000
17.600000 38.622222 0.000000
17.600000 40.871111 0.000000
17.600000 43.120000 0.000000
17.600000 45.368889 0.000000
17.600000 47.617778 0.000000
19.200000 19.786667 0.000000
19.200000 21.973333 0.000000
19.200000 24.160000 0.000000
19.200000 26.346667 0.000000
19.200000 28.533333 0.000000
19.200000 30.720000 0.000000
19.200000 32.906667 0.000000
19.200000 35.093333 0.000000
19.200000 37.280000 0.000000
19.200000 39.466667 0.000000
19.200000 41.653333 0.000000
19.200000 43.840000 0.000000
19.200000 46.026667 0.000000
19.200000 48.213333 0.000000
20.800000 21.191111 0.000000
20.800000 23.315556 0.000000
20.800000 25.440000 0.000000
20.800000 27.564444 0.000000
20.800000 29.688889 0.000000
20.800000 31.813333 0.000000
20.800000 33.937778 0.000000
20.800000 36.062222 0.000000
20.800000 38.186667 0.000000
20.800000 40.311111 0.000000
20.800000 42.435556 0.000000
20.800000 44.560000 0.000000
20.800000 46.684444 0.000000
20.800000 48.808889 0.000000
22.400000 22.595556 0.000000
22.400000 24.657778 0.000000
22.400000 26.720000 0.000000
22.400000 28.782222 0.000000
22.400000 30.844444 0.000000
22.400000 32.906667 0.000000
22.400000 34.968889 0.000000
22.400000 37.031111 0.000000
22.400000 39.093333 0.000000
22.400000 41.155556 0.000000
22.400000 43.217778 0.000000
22.400000 45.280000 0.000000
22.400000 47.342222 0.000000
22.400000 49.404444 0.000000
24.000000 24.000000 0.000000
24.000000 26.000000 0.000000
24.000000 28.000000 0.000000
24.000000 30.000000 0.000000
24.000000 32.000000 0.000000
24.000000 34.000000 0.000000
24.000000 36.000000 0.000000
24.000000 38.000000 0.000000
24.000000 40.000000 0.000000
24.000000 42.000000 0.000000
24.000000 44.000000 0.000000
24.000000 46.000000 0.000000
24.000000 48.000000 0.000000
24.000000 50.000000 0.000000
25.600000 25.404444 0.000000
25.600000 27.342222 0.000000
25.600000 29.280000 0.000000
25.600000 31.217778 0.000000
25.600000 33.155556 0.000000
25.600000 35.093333 0.000000
25.600000 37.031111 0.000000
25.600000 38.968889 0.000000
25.600000 40.906667 0.000000
25.600000 42.844444 0.000000
25.600000 44.782222 0.000000
25.600000 46.720000 0.000000
25.600000 48.657778 0.000000
25.600000 50.595556 0.000000
27.200000 26.808889 0.000000
27.200000 28.684444 0.000000
27.200000 30.560000 0.000000
27.200000 32.435556 0.000000
27.200000 34.311111 0.000000
27.200000 36.186667 0.000000
27.200000 38.062222 0.000000
27.200000 39.937778 0.000000
27.200000 41.813333 0.000000
27.200000 43.688889 0.000000
27.200000 45.564444 0.000000
27.200000 47.440000 0.000000
27.200000 49.315556 0.000000
27.200000 51.191111 0.000000
28.800000 28.213333 0.000000
28.800000 30.026667 0.000000
28.800000 31.840000 0.000000
28.800000 33.653333 0.000000
28.800000 35.466667 0.000000
28.800000 37.280000 0.000000
28.800000 39.093333 0.000000
28.800000 40.906667 0.000000
28.800000 42.720000 0.000000
28.800000 44.533333 0.000000
28.800000 46.346667 0.000000
28.800000 48.160000 0.000000
28.800000 49.973333 0.000000
28.800000 51.786667 0.000000
30.400000 29.617778 0.000000
30.400000 31.368889 0.000000
30.400000 33.120000 0.000000
30.400000 34.871111 0.000000
[...]
POINT_DATA 496
SCALARS P float 1
LOOKUP_TABLE default
6.932781
38.251096
-41.029953
-104.685265
4.998344
5.798140
4.955597
4.990133
4.105167
7.420027
3.359880
7.219828
10.765478
5.000165
8.269557
12.185465
11.171298
9.053441
13.295728
13.406076
10.686712
16.016430
14.309113
2.584216
33.518350
40.987758
11.898878
-9.761933
-20.306541
-19.744014
-43.742209
-23.632500
-31.988658
-59.887106
-23.873775
128.696494
-57.250412
-66.956758
121.366298
-11.672450
-48.037267
58.691305
-17.421727
57.682334
-25.324425
-43.511327
123.198269
-31.433482
26.180003
-49.127368
12.186898
-39.732811
19.138975
-62.450471
34.337756
-86.276700
49.843439
-96.694134
74.553700
-119.634485
117.275439
-165.056127
171.131900
-224.505601
235.676226
-290.966942
301.235279
-349.735056
343.934430
-364.902134
318.286508
-286.623827
178.782315
-92.849401
-39.119300
84.731151
-12.720169
2.679747
-13.696120
-0.605499
5.932074
3.838337
6.225375
9.375977
8.315152
7.596801
7.818848
6.622649
5.521709
5.320290
6.263471
5.518408
4.221070
5.335724
7.537712
2.541950
0.873405
8.241151
0.044978
-13.026799
6.991775
11.311711
-77.559076
53.693525
4.781026
8.125725
10.525575
6.021018
7.381012
17.648723
7.752741
-5.122080
19.772068
16.322660
-48.246533
15.997689
73.779702
-215.299881
5.491329
0.577449
3.778355
10.451297
-2.024869
-10.091126
16.027294
5.841398
-42.182989
20.196357
41.095074
-93.906456
-34.341369
272.202946
8.265084
12.033422
2.571706
4.151333
26.323728
7.863634
-20.813524
36.129786
26.850125
-63.591497
5.870044
90.199026
-67.199280
-314.273609
1.388115
4.989649
16.070307
-6.055216
-13.622800
32.925913
-0.722576
-46.963508
28.430145
41.180309
-62.359064
-64.696516
105.234753
269.021419
9.561627
-1.992865
4.723586
32.428639
-11.178929
-17.855379
48.017009
6.350002
-48.044105
2.741598
56.153620
3.667288
-140.810283
-246.488502
10.099081
16.769493
-13.999669
4.000138
43.128386
-23.082328
-25.685037
40.095953
15.836768
-32.333256
-39.413987
12.683852
119.645739
186.009217
-2.605649
14.942381
23.655416
-30.312906
5.054511
47.831664
-19.575892
-30.253457
17.986100
17.677451
9.608125
-32.940799
-122.441574
-167.647931
10.607791
-11.913480
26.427823
31.190293
-35.046840
-1.422701
43.521544
-4.117376
-22.234114
-2.770909
-14.120476
24.561004
91.380551
120.513943
17.508881
8.253606
-24.793747
24.536708
34.387362
-27.863838
-12.421486
25.253586
1.265392
-4.788082
7.497467
-36.474134
-89.660279
-114.266307
2.622883
27.239894
13.583180
-26.717303
14.289597
31.557227
-12.833075
-9.604065
7.488991
-4.698520
-15.744214
27.615182
55.420287
80.672834
4.659056
-4.409895
25.868168
18.219998
-19.548778
6.477607
17.089211
-1.713652
-6.895145
9.040410
1.212762
-31.355935
-54.533272
-84.026862
17.009244
5.562486
-7.447293
18.996302
12.087765
-6.656454
-1.617949
11.252575
-6.750535
-6.838916
-9.864218
17.368149
24.572679
58.414732
9.628660
18.998599
4.647538
1.395967
8.722648
14.511284
-6.970676
5.377925
2.524527
5.418734
-0.167276
-16.537182
-31.456160
-63.407499
4.617655
11.706525
11.629844
7.797721
-4.952419
11.736667
0.101201
1.393373
-9.242674
1.405898
-20.118646
13.010172
0.524446
43.895374
13.792527
2.620410
7.563341
19.749332
-3.131366
11.437402
-3.958426
19.234668
-14.033147
21.578138
-6.969012
-2.140548
-16.602922
-47.590020
11.509135
26.378937
-18.821565
26.120295
-8.610525
21.042932
-26.113735
28.501411
-32.859297
14.855672
-32.065137
13.001152
-18.778132
34.995448
-4.830988
20.804435
23.507340
-15.160660
17.683430
17.779083
-19.366298
38.183317
-28.084297
41.039541
-23.888912
24.050122
-21.008403
-24.200423
28.835783
-31.719679
31.926647
39.869919
-96.246101
153.833724
-182.646387
191.888558
-202.406107
170.796668
-170.611842
111.252967
-93.853970
53.656771
17.979198
70.000875
-162.947080
294.694700
-355.167893
405.310312
-393.207693
386.850442
-321.475815
277.386533
-181.776837
121.630976
-50.102341
2.437179
-95.297549
252.351131
-372.562295
485.274615
-534.347311
576.911122
-589.455788
558.558585
-528.794122
423.589199
-352.633394
215.422824
-165.882117
67.028936
-73.840737
151.440141
-160.015395
200.099054
-231.623831
306.461262
-342.703665
411.096591
-375.661946
342.777737
-226.475930
171.924921
-65.888702
32.954157
34.170665
-79.193885
165.316469
-170.150791
145.557503
-41.719643
-116.530920
202.357182
-264.625028
221.777767
-233.871107
130.888425
-128.893685
23.777062
116.186891
-222.859803
363.407984
-423.420635
388.385702
-195.605987
73.338648
43.832461
-57.005284
134.300876
-94.726702
124.098270
-40.173917
49.701299
134.478366
-269.087025
446.853878
-447.848215
300.221065
-169.916055
99.874329
-96.079450
4.545412
6.749284
-96.825973
41.342988
-83.798435
-7.348615
162.358214
-324.913648
386.840368
-213.870618
87.264675
-45.847516
123.762134
-91.627529
104.864133
-4.435972
9.420284
64.521250
-13.787071
39.081716
199.762729
-254.659078
159.601697
-17.329713
0.319905
-49.484611
27.856051
-39.229014
9.367497
-67.036910
37.533360
-60.235503
-22.575580
8.698583
101.505979
-97.408877
116.467306
-150.178223
138.780249
62.317648
-177.858102
171.949524
48.135391
-160.954561
167.238516
3.509358
-63.937518
47.929312
103.836381
-142.140681
194.707550
-105.404732
-137.246336
294.813233
-187.053294
-96.908975
251.437609
-163.407973
-24.179393
66.650612
6.155150
-47.032940
