# vtk DataFile Version 2.0
patchtest_tri3_mix
ASCII
DATASET POLYDATA
POINTS 231 float
0.000000 0.000000 0.000000
48.000000 44.000000 0.000000
48.000000 60.000000 0.000000
0.000000 44.000000 0.000000
2.400000 2.200000 0.000000
4.800000 4.400000 0.000000
7.200000 6.600000 0.000000
9.600000 8.800000 0.000000
12.000000 11.000000 0.000000
14.400000 13.200000 0.000000
16.800000 15.400000 0.000000
19.200000 17.600000 0.000000
21.600000 19.800000 0.000000
24.000000 22.000000 0.000000
26.400000 24.200000 0.000000
28.800000 26.400000 0.000000
31.200000 28.600000 0.000000
33.600000 30.800000 0.000000
36.000000 33.000000 0.000000
38.400000 35.200000 0.000000
40.800000 37.400000 0.000000
43.200000 39.600000 0.000000
45.600000 41.800000 0.000000
48.000000 45.600000 0.000000
48.000000 47.200000 0.000000
48.000000 48.800000 0.000000
48.000000 50.400000 0.000000
48.000000 52.000000 0.000000
48.000000 53.600000 0.000000
48.000000 55.200000 0.000000
48.000000 56.800000 0.000000
48.000000 58.400000 0.000000
45.600000 59.200000 0.000000
43.200000 58.400000 0.000000
40.800000 57.600000 0.000000
38.400000 56.800000 0.000000
36.000000 56.000000 0.000000
33.600000 55.200000 0.000000
31.200000 54.400000 0.000000
28.800000 53.600000 0.000000
26.400000 52.800000 0.000000
24.000000 52.000000 0.000000
21.600000 51.200000 0.000000
19.200000 50.400000 0.000000
16.800000 49.600000 0.000000
14.400000 48.800000 0.000000
12.000000 48.000000 0.000000
9.600000 47.200000 0.000000
7.200000 46.400000 0.000000
4.800000 45.600000 0.000000
2.400000 44.800000 0.000000
0.000000 39.600000 0.000000
0.000000 35.200000 0.000000
0.000000 30.800000 0.000000
0.000000 26.400000 0.000000
0.000000 22.000000 0.000000
0.000000 17.600000 0.000000
0.000000 13.200000 0.000000
0.000000 8.800000 0.000000
0.000000 4.400000 0.000000
2.400000 6.460000 0.000000
2.400000 10.720000 0.000000
2.400000 14.980000 0.000000
2.400000 19.240000 0.000000
2.400000 23.500000 0.000000
2.400000 27.760000 0.000000
2.400000 32.020000 0.000000
2.400000 36.280000 0.000000
2.400000 40.540000 0.000000
4.800000 8.520000 0.000000
4.800000 12.640000 0.000000
4.800000 16.760000 0.000000
4.800000 20.880000 0.000000
4.800000 25.000000 0.000000
4.800000 29.120000 0.000000
4.800000 33.240000 0.000000
4.800000 37.360000 0.000000
4.800000 41.480000 0.000000
7.200000 10.580000 0.000000
7.200000 14.560000 0.000000
7.200000 18.540000 0.000000
7.200000 22.520000 0.000000
7.200000 26.500000 0.000000
7.200000 30.480000 0.000000
7.200000 34.460000 0.000000
7.200000 38.440000 0.000000
7.200000 42.420000 0.000000
9.600000 12.640000 0.000000
9.600000 16.480000 0.000000
9.600000 20.320000 0.000000
9.600000 24.160000 0.000000
9.600000 28.000000 0.000000
9.600000 31.840000 0.000000
9.600000 35.680000 0.000000
9.600000 39.520000 0.000000
9.600000 43.360000 0.000000
12.000000 14.700000 0.000000
12.000000 18.400000 0.000000
12.000000 22.100000 0.000000
12.000000 25.800000 0.000000
12.000000 29.500000 0.000000
12.000000 33.200000 0.000000
12.000000 36.900000 0.000000
12.000000 40.600000 0.000000
12.000000 44.300000 0.000000
14.400000 16.760000 0.000000
14.400000 20.320000 0.000000
14.400000 23.880000 0.000000
14.400000 27.440000 0.000000
14.400000 31.000000 0.000000
14.400000 34.560000 0.000000
14.400000 38.120000 0.000000
14.400000 41.680000 0.000000
14.400000 45.240000 0.000000
16.800000 18.820000 0.000000
16.800000 22.240000 0.000000
16.800000 25.660000 0.000000
16.800000 29.080000 0.000000
16.800000 32.500000 0.000000
16.800000 35.920000 0.000000
16.800000 39.340000 0.000000
16.800000 42.760000 0.000000
16.800000 46.180000 0.000000
19.200000 20.880000 0.000000
19.200000 24.160000 0.000000
19.200000 27.440000 0.000000
19.200000 30.720000 0.000000
19.200000 34.000000 0.000000
19.200000 37.280000 0.000000
19.200000 40.560000 0.000000
19.200000 43.840000 0.000000
19.200000 47.120000 0.000000
21.600000 22.940000 0.000000
21.600000 26.080000 0.000000
21.600000 29.220000 0.000000
21.600000 32.360000 0.000000
21.600000 35.500000 0.000000
21.600000 38.640000 0.000000
21.600000 41.780000 0.000000
21.600000 44.920000 0.000000
21.600000 48.060000 0.000000
24.000000 25.000000 0.000000
24.000000 28.000000 0.000000
24.000000 31.000000 0.000000
24.000000 34.000000 0.000000
24.000000 37.000000 0.000000
24.000000 40.000000 0.000000
24.000000 43.000000 0.000000
24.000000 46.000000 0.000000
24.000000 49.000000 0.000000
26.400000 27.060000 0.000000
26.400000 29.920000 0.000000
26.400000 32.780000 0.000000
26.400000 35.640000 0.000000
26.400000 38.500000 0.000000
26.400000 41.360000 0.000000
26.400000 44.220000 0.000000
26.400000 47.080000 0.000000
26.400000 49.940000 0.000000
28.800000 29.120000 0.000000
28.800000 31.840000 0.000000
28.800000 34.560000 0.000000
28.800000 37.280000 0.000000
28.800000 40.000000 0.000000
28.800000 42.720000 0.000000
28.800000 45.440000 0.000000
28.800000 48.160000 0.000000
28.800000 50.880000 0.000000
31.200000 31.180000 0.000000
31.200000 33.760000 0.000000
31.200000 36.340000 0.000000
31.200000 38.920000 0.000000
31.200000 41.500000 0.000000
31.200000 44.080000 0.000000
31.200000 46.660000 0.000000
31.200000 49.240000 0.000000
31.200000 51.820000 0.000000
33.600000 33.240000 0.000000
33.600000 35.680000 0.000000
33.600000 38.120000 0.000000
33.600000 40.560000 0.000000
33.600000 43.000000 0.000000
33.600000 45.440000 0.000000
33.600000 47.880000 0.000000
33.600000 50.320000 0.000000
33.600000 52.760000 0.000000
36.000000 35.300000 0.000000
36.000000 37.600000 0.000000
36.000000 39.900000 0.000000
36.000000 42.200000 0.000000
36.000000 44.500000 0.000000
36.000000 46.800000 0.000000
36.000000 49.100000 0.000000
36.000000 51.400000 0.000000
36.000000 53.700000 0.000000
38.400000 37.360000 0.000000
38.400000 39.520000 0.000000
38.400000 41.680000 0.000000
38.400000 43.840000 0.000000
38.400000 46.000000 0.000000
38.400000 48.160000 0.000000
38.400000 50.320000 0.000000
38.400000 52.480000 0.000000
38.400000 54.640000 0.000000
40.800000 39.420000 0.000000
40.800000 41.440000 0.000000
40.800000 43.460000 0.000000
40.800000 45.480000 0.000000
40.800000 47.500000 0.000000
40.800000 49.520000 0.000000
40.800000 51.540000 0.000000
40.800000 53.560000 0.000000
40.800000 55.580000 0.000000
43.200000 41.480000 0.000000
43.200000 43.360000 0.000000
43.200000 45.240000 0.000000
43.200000 47.120000 0.000000
43.200000 49.000000 0.000000
43.200000 50.880000 0.000000
43.200000 52.760000 0.000000
43.200000 54.640000 0.000000
43.200000 56.520000 0.000000
45.600000 43.540000 0.000000
45.600000 45.280000 0.000000
45.600000 47.020000 0.000000
45.600000 48.760000 0.000000
45.600000 50.500000 0.000000
45.600000 52.240000 0.000000
45.600000 53.980000 0.000000
45.600000 55.720000 0.000000
45.600000 57.460000 0.000000
POLYGONS 400 1600
3 0 4 59
3 59 4 60
3 59 60 58
3 58 60 61
3 58 61 57
3 57 61 62
3 57 62 56
3 56 62 63
3 56 63 55
3 55 63 64
3 55 64 54
3 54 64 65
3 54 65 53
3 53 65 66
3 53 66 52
3 52 66 67
3 52 67 51
3 51 67 68
3 51 68 3
3 3 68 50
3 4 5 60
3 60 5 69
3 60 69 61
3 61 69 70
3 61 70 62
3 62 70 71
3 62 71 63
3 63 71 72
3 63 72 64
3 64 72 73
3 64 73 65
3 65 73 74
3 65 74 66
3 66 74 75
3 66 75 67
3 67 75 76
3 67 76 68
3 68 76 77
3 68 77 50
3 50 77 49
3 5 6 69
3 69 6 78
3 69 78 70
3 70 78 79
3 70 79 71
3 71 79 80
3 71 80 72
3 72 80 81
3 72 81 73
3 73 81 82
3 73 82 74
3 74 82 83
3 74 83 75
3 75 83 84
3 75 84 76
3 76 84 85
3 76 85 77
3 77 85 86
3 77 86 49
3 49 86 48
3 6 7 78
3 78 7 87
3 78 87 79
3 79 87 88
3 79 88 80
3 80 88 89
3 80 89 81
3 81 89 90
3 81 90 82
3 82 90 91
3 82 91 83
3 83 91 92
3 83 92 84
3 84 92 93
3 84 93 85
3 85 93 94
3 85 94 86
3 86 94 95
3 86 95 48
3 48 95 47
3 7 8 87
3 87 8 96
3 87 96 88
3 88 96 97
3 88 97 89
3 89 97 98
3 89 98 90
3 90 98 99
3 90 99 91
3 91 99 100
3 91 100 92
3 92 100 101
3 92 101 93
3 93 101 102
3 93 102 94
3 94 102 103
3 94 103 95
3 95 103 104
3 95 104 47
3 47 104 46
3 8 9 96
3 96 9 105
3 96 105 97
3 97 105 106
3 97 106 98
3 98 106 107
3 98 107 99
3 99 107 108
3 99 108 100
3 100 108 109
3 100 109 101
3 101 109 110
3 101 110 102
3 102 110 111
3 102 111 103
3 103 111 112
3 103 112 104
3 104 112 113
3 104 113 46
3 46 113 45
3 9 10 105
3 105 10 114
3 105 114 106
3 106 114 115
3 106 115 107
3 107 115 116
3 107 116 108
3 108 116 117
3 108 117 109
3 109 117 118
3 109 118 110
3 110 118 119
3 110 119 111
3 111 119 120
3 111 120 112
3 112 120 121
3 112 121 113
3 113 121 122
3 113 122 45
3 45 122 44
3 10 11 114
3 114 11 123
3 114 123 115
3 115 123 124
3 115 124 116
3 116 124 125
3 116 125 117
3 117 125 126
3 117 126 118
3 118 126 127
3 118 127 119
3 119 127 128
3 119 128 120
3 120 128 129
3 120 129 121
3 121 129 130
3 121 130 122
3 122 130 131
3 122 131 44
3 44 131 43
3 11 12 123
3 123 12 132
3 123 132 124
3 124 132 133
3 124 133 125
3 125 133 134
3 125 134 126
3 126 134 135
3 126 135 127
3 127 135 136
3 127 136 128
3 128 136 137
3 128 137 129
3 129 137 138
3 129 138 130
3 130 138 139
3 130 139 131
3 131 139 140
3 131 140 43
3 43 140 42
3 12 13 132
3 132 13 141
3 132 141 133
3 133 141 142
3 133 142 134
3 134 142 143
3 134 143 135
3 135 143 144
3 135 144 136
3 136 144 145
3 136 145 137
3 137 145 146
3 137 146 138
3 138 146 147
3 138 147 139
3 139 147 148
3 139 148 140
3 140 148 149
3 140 149 42
3 42 149 41
3 13 14 141
3 141 14 150
3 141 150 142
3 142 150 151
3 142 151 143
3 143 151 152
3 143 152 144
3 144 152 153
3 144 153 145
3 145 153 154
3 145 154 146
3 146 154 155
3 146 155 147
3 147 155 156
3 147 156 148
3 148 156 157
3 148 157 149
3 149 157 158
3 149 158 41
3 41 158 40
3 14 15 150
3 150 15 159
3 150 159 151
3 151 159 160
3 151 160 152
3 152 160 161
3 152 161 153
3 153 161 162
3 153 162 154
3 154 162 163
3 154 163 155
3 155 163 164
3 155 164 156
3 156 164 165
3 156 165 157
3 157 165 166
3 157 166 158
3 158 166 167
3 158 167 40
3 40 167 39
3 15 16 159
3 159 16 168
3 159 168 160
3 160 168 169
3 160 169 161
3 161 169 170
3 161 170 162
3 162 170 171
3 162 171 163
3 163 171 172
3 163 172 164
3 164 172 173
3 164 173 165
3 165 173 174
3 165 174 166
3 166 174 175
3 166 175 167
3 167 175 176
3 167 176 39
3 39 176 38
3 16 17 168
3 168 17 177
3 168 177 169
3 169 177 178
3 169 178 170
3 170 178 179
3 170 179 171
3 171 179 180
3 171 180 172
3 172 180 181
3 172 181 173
3 173 181 182
3 173 182 174
3 174 182 183
3 174 183 175
3 175 183 184
3 175 184 176
3 176 184 185
3 176 185 38
3 38 185 37
3 17 18 177
3 177 18 186
3 177 186 178
3 178 186 187
3 178 187 179
3 179 187 188
3 179 188 180
3 180 188 189
3 180 189 181
3 181 189 190
3 181 190 182
3 182 190 191
3 182 191 183
3 183 191 192
3 183 192 184
3 184 192 193
3 184 193 185
3 185 193 194
3 185 194 37
3 37 194 36
3 18 19 186
3 186 19 195
3 186 195 187
3 187 195 196
3 187 196 188
3 188 196 197
3 188 197 189
3 189 197 198
3 189 198 190
3 190 198 199
3 190 199 191
3 191 199 200
3 191 200 192
3 192 200 201
3 192 201 193
3 193 201 202
3 193 202 194
3 194 202 203
3 194 203 36
3 36 203 35
3 19 20 195
3 195 20 204
3 195 204 196
3 196 204 205
3 196 205 197
3 197 205 206
3 197 206 198
3 198 206 207
3 198 207 199
3 199 207 208
3 199 208 200
3 200 208 209
3 200 209 201
3 201 209 210
3 201 210 202
3 202 210 211
3 202 211 203
3 203 211 212
3 203 212 35
3 35 212 34
3 20 21 204
3 204 21 213
3 204 213 205
3 205 213 214
3 205 214 206
3 206 214 215
3 206 215 207
3 207 215 216
3 207 216 208
3 208 216 217
3 208 217 209
3 209 217 218
3 209 218 210
3 210 218 219
3 210 219 211
3 211 219 220
3 211 220 212
3 212 220 221
3 212 221 34
3 34 221 33
3 21 22 213
3 213 22 222
3 213 222 214
3 214 222 223
3 214 223 215
3 215 223 224
3 215 224 216
3 216 224 225
3 216 225 217
3 217 225 226
3 217 226 218
3 218 226 227
3 218 227 219
3 219 227 228
3 219 228 220
3 220 228 229
3 220 229 221
3 221 229 230
3 221 230 33
3 33 230 32
3 22 1 222
3 222 1 23
3 222 23 223
3 223 23 24
3 223 24 224
3 224 24 25
3 224 25 225
3 225 25 26
3 225 26 226
3 226 26 27
3 226 27 227
3 227 27 28
3 227 28 228
3 228 28 29
3 228 29 229
3 229 29 30
3 229 30 230
3 230 30 31
3 230 31 32
3 32 31 2
POINT_DATA 231
SCALARS P float 1
LOOKUP_TABLE default
6.872832
-0.567550
-39.100920
-91.924510
4.812455
6.077873
2.809056
7.299257
5.899306
1.719217
14.433647
12.094407
4.202208
15.374887
15.010923
3.688899
18.360159
9.885524
-21.562640
-23.349534
-32.484045
-3.793767
-66.588040
-18.919123
4.513467
91.924229
-109.471487
52.336692
87.774011
-83.403577
-12.698449
119.967440
-60.435341
59.985172
-106.116484
88.349061
-141.194148
125.726589
-189.899339
174.532376
-226.206535
220.572517
-259.237025
248.656528
-272.624771
235.899315
-220.962437
134.518449
-68.878088
-44.505480
77.168011
-5.701240
6.436287
-5.420465
5.718686
10.982917
8.237148
7.099116
6.673808
4.983724
5.434710
5.443099
9.160006
1.010794
-7.219400
10.543975
10.725476
-65.412050
40.136435
7.333678
4.062282
3.606793
25.742706
16.302327
-38.380974
28.718520
64.905929
-173.196192
6.085776
14.404847
-1.761447
-35.392114
34.346697
29.369464
-93.826618
-17.010896
213.755191
0.625869
-3.106663
47.283232
13.831579
-62.790478
37.087241
82.476504
-71.485958
-231.796464
21.904045
-13.280595
-34.242057
54.745804
28.758162
-79.612301
-31.795160
93.045522
178.828873
4.607099
49.059014
-9.935650
-50.139003
35.421791
55.803853
-22.603505
-96.346842
-154.322920
-10.984696
-8.375857
58.774145
4.220479
-40.203853
-13.955588
28.245881
58.355504
110.717642
28.487781
-18.770329
-21.435390
39.681414
8.149656
-3.391437
-19.336064
-52.755332
-104.706922
11.846862
41.052848
-11.927802
-14.929690
28.112619
-22.982078
19.701787
20.544595
80.937027
-8.344579
3.427229
42.443408
-30.561238
11.845688
16.064097
-19.465255
-20.344767
-84.860278
28.454144
-28.400574
26.406653
19.431501
-21.107144
-6.280969
15.237614
-9.365873
69.756734
21.623749
27.864495
-37.458124
30.074098
20.643079
-30.278887
37.021619
-35.609028
-42.647020
-15.138456
23.452043
55.034571
-120.960297
169.945287
-173.895709
121.682067
-96.743947
74.114944
63.104144
-148.557139
284.401939
-347.072927
338.775938
-250.239258
191.998310
-85.784798
9.818047
140.495814
-270.315953
410.704531
-417.200838
376.453534
-315.795475
167.547020
-127.088095
54.299660
160.963963
-279.420057
356.795341
-370.231559
344.631699
-208.972779
173.002399
-63.876322
15.983948
136.528464
-200.656312
312.879017
-313.619505
220.086265
-177.472847
65.221462
-62.364560
35.851905
106.700001
-259.300120
311.760827
-180.153601
85.443218
6.845332
61.746352
-76.755005
40.455196
255.076421
-259.683640
83.636203
89.715930
-108.749434
-30.208284
100.215546
-51.479180
-2.768578
