# vtk DataFile Version 2.0
patchtest_tri3_mix
ASCII
DATASET POLYDATA
POINTS 200 float
0.000000 -6.000000 0.000000
48.000000 -6.000000 0.000000
48.000000 6.000000 0.000000
0.000000 6.000000 0.000000
1.714286 -6.000000 0.000000
3.428571 -6.000000 0.000000
5.142857 -6.000000 0.000000
6.857143 -6.000000 0.000000
8.571429 -6.000000 0.000000
10.285714 -6.000000 0.000000
12.000000 -6.000000 0.000000
13.714286 -6.000000 0.000000
15.428571 -6.000000 0.000000
17.142857 -6.000000 0.000000
18.857143 -6.000000 0.000000
20.571429 -6.000000 0.000000
22.285714 -6.000000 0.000000
24.000000 -6.000000 0.000000
25.714286 -6.000000 0.000000
27.428571 -6.000000 0.000000
29.142857 -6.000000 0.000000
30.857143 -6.000000 0.000000
32.571429 -6.000000 0.000000
34.285714 -6.000000 0.000000
36.000000 -6.000000 0.000000
37.714286 -6.000000 0.000000
39.428571 -6.000000 0.000000
41.142857 -6.000000 0.000000
42.857143 -6.000000 0.000000
44.571429 -6.000000 0.000000
46.285714 -6.000000 0.000000
48.000000 -4.285714 0.000000
48.000000 -2.571429 0.000000
48.000000 -0.857143 0.000000
48.000000 0.857143 0.000000
48.000000 2.571429 0.000000
48.000000 4.285714 0.000000
46.285714 6.000000 0.000000
44.571429 6.000000 0.000000
42.857143 6.000000 0.000000
41.142857 6.000000 0.000000
39.428571 6.000000 0.000000
37.714286 6.000000 0.000000
36.000000 6.000000 0.000000
34.285714 6.000000 0.000000
32.571429 6.000000 0.000000
30.857143 6.000000 0.000000
29.142857 6.000000 0.000000
27.428571 6.000000 0.000000
25.714286 6.000000 0.000000
24.000000 6.000000 0.000000
22.285714 6.000000 0.000000
20.571429 6.000000 0.000000
18.857143 6.000000 0.000000
17.142857 6.000000 0.000000
15.428571 6.000000 0.000000
13.714286 6.000000 0.000000
12.000000 6.000000 0.000000
10.285714 6.000000 0.000000
8.571429 6.000000 0.000000
6.857143 6.000000 0.000000
5.142857 6.000000 0.000000
3.428571 6.000000 0.000000
1.714286 6.000000 0.000000
0.000000 4.285714 0.000000
0.000000 2.571429 0.000000
0.000000 0.857143 0.000000
0.000000 -0.857143 0.000000
0.000000 -2.571429 0.000000
0.000000 -4.285714 0.000000
23.130912 0.752913 0.000000
10.125780 -4.364955 0.000000
44.700204 2.461893 0.000000
17.719338 -4.177112 0.000000
38.498887 2.434050 0.000000
29.638741 -4.147715 0.000000
38.458247 -0.970913 0.000000
37.338436 -2.582012 0.000000
8.578831 -3.639555 0.000000
17.638683 2.637723 0.000000
5.970124 0.915435 0.000000
15.757639 -4.200573 0.000000
11.305769 -0.890603 0.000000
40.654677 -0.978176 0.000000
41.985040 -2.485162 0.000000
38.406946 -4.207282 0.000000
19.693087 -0.620039 0.000000
9.947645 0.473004 0.000000
12.166227 0.815482 0.000000
35.390220 4.184144 0.000000
25.339295 -0.061121 0.000000
15.368193 2.646065 0.000000
45.938701 -0.394146 0.000000
13.852393 -4.222239 0.000000
18.539652 4.228668 0.000000
8.986868 2.195816 0.000000
20.474318 4.215469 0.000000
12.595288 -2.447036 0.000000
33.296320 4.184848 0.000000
34.243827 2.424381 0.000000
46.052982 3.979660 0.000000
8.081841 4.159096 0.000000
11.001679 2.354126 0.000000
46.240976 1.616328 0.000000
5.647112 -0.771980 0.000000
23.986014 4.103607 0.000000
25.761282 -4.151026 0.000000
23.722138 -0.966963 0.000000
13.430291 -0.698897 0.000000
40.610281 -4.163719 0.000000
24.408204 2.116589 0.000000
5.043358 2.415398 0.000000
18.650571 -2.365915 0.000000
32.922842 -2.531028 0.000000
27.913241 2.641973 0.000000
16.520662 1.079325 0.000000
7.834681 0.209029 0.000000
21.732465 -4.248727 0.000000
44.386449 -3.963816 0.000000
1.824721 -2.209421 0.000000
15.509412 -0.646148 0.000000
10.572277 -2.631109 0.000000
40.609472 2.448010 0.000000
20.696780 -2.414370 0.000000
3.445910 -3.806629 0.000000
16.399617 4.228707 0.000000
42.638862 -4.209711 0.000000
20.949000 0.965107 0.000000
5.986287 4.132717 0.000000
27.619718 -4.088759 0.000000
7.155837 2.377756 0.000000
37.496731 4.203929 0.000000
3.891403 0.409529 0.000000
36.193603 -4.237479 0.000000
41.764724 4.120439 0.000000
7.287543 -1.949418 0.000000
34.078379 -0.925117 0.000000
39.545146 0.694457 0.000000
19.723086 -4.167022 0.000000
1.770808 -4.173773 0.000000
3.880816 4.184610 0.000000
3.680574 -1.692347 0.000000
35.238531 0.713198 0.000000
35.130894 -2.558419 0.000000
5.058195 -4.383644 0.000000
36.375890 2.427127 0.000000
11.996976 -4.226513 0.000000
42.775811 2.277256 0.000000
42.780820 -0.672550 0.000000
46.188311 -4.192635 0.000000
39.594796 -2.569067 0.000000
39.601502 4.214496 0.000000
14.588380 -2.430777 0.000000
19.926104 2.561583 0.000000
22.197420 2.506968 0.000000
14.177099 4.220119 0.000000
31.801174 -4.169992 0.000000
44.191113 -1.964882 0.000000
12.059169 4.194783 0.000000
23.800237 -4.211172 0.000000
32.112523 2.447683 0.000000
16.613313 -2.396772 0.000000
28.720660 1.007454 0.000000
29.619299 -0.695670 0.000000
24.820412 -2.390478 0.000000
1.973238 -0.164721 0.000000
30.918716 0.771530 0.000000
14.359593 1.012424 0.000000
30.693284 -2.430076 0.000000
34.014262 -4.222866 0.000000
27.448615 4.323823 0.000000
17.596571 -0.604559 0.000000
13.150562 2.519260 0.000000
1.750097 1.816825 0.000000
10.028473 4.132472 0.000000
41.674485 0.765131 0.000000
18.714355 1.053327 0.000000
44.152082 0.545997 0.000000
33.076072 0.728894 0.000000
29.326924 4.228230 0.000000
1.896061 3.986577 0.000000
21.748508 -0.753279 0.000000
26.387303 1.693067 0.000000
6.938373 -4.160973 0.000000
31.874696 -0.885231 0.000000
46.141463 -2.344047 0.000000
3.300410 2.266549 0.000000
26.570262 -2.072674 0.000000
30.022819 2.488126 0.000000
27.393192 -0.284447 0.000000
22.704848 -2.580514 0.000000
5.418785 -2.668208 0.000000
43.859281 4.196188 0.000000
37.398182 0.704166 0.000000
25.798561 3.821919 0.000000
28.534816 -2.271423 0.000000
22.224049 4.264327 0.000000
31.258871 4.217172 0.000000
9.156081 -1.460117 0.000000
36.270398 -0.944115 0.000000
POLYGONS 328 1312
3 0 4 69
3 4 5 139
3 4 139 69
3 124 139 5
3 144 124 5
3 69 139 68
3 5 6 144
3 144 7 183
3 183 7 8
3 71 9 146
3 9 71 8
3 146 9 10
3 71 78 8
3 7 144 6
3 146 121 71
3 68 139 119
3 119 139 124
3 124 144 191
3 141 124 191
3 165 67 119
3 119 67 68
3 141 119 124
3 141 165 119
3 191 104 141
3 135 183 78
3 78 183 8
3 121 78 71
3 198 78 121
3 116 104 135
3 104 191 135
3 116 135 198
3 82 198 121
3 135 78 198
3 82 87 198
3 82 121 97
3 135 191 183
3 144 183 191
3 132 141 104
3 121 146 97
3 11 93 146
3 11 12 93
3 12 81 93
3 81 12 13
3 81 13 73
3 152 93 81
3 93 97 146
3 73 14 138
3 15 16 117
3 117 138 15
3 14 15 138
3 159 117 16
3 190 117 159
3 16 17 159
3 14 73 13
3 161 81 73
3 108 97 152
3 97 93 152
3 152 81 161
3 120 152 161
3 152 120 108
3 120 161 171
3 167 108 120
3 88 82 108
3 161 112 171
3 97 108 82
3 117 123 138
3 123 117 190
3 123 190 181
3 138 123 112
3 112 86 171
3 112 123 86
3 181 107 70
3 86 123 181
3 190 107 181
3 86 181 127
3 107 190 164
3 112 161 73
3 112 73 138
3 171 86 176
3 190 159 164
3 146 10 11
3 115 120 171
3 173 66 165
3 165 66 67
3 165 141 132
3 173 165 132
3 180 65 173
3 173 65 66
3 186 173 132
3 186 180 173
3 132 111 186
3 130 80 116
3 80 132 104
3 116 198 87
3 95 116 87
3 80 130 111
3 130 116 95
3 130 95 101
3 140 186 111
3 95 102 174
3 80 111 132
3 80 104 116
3 128 111 130
3 63 64 180
3 180 64 65
3 180 186 140
3 62 180 140
3 63 3 64
3 62 63 180
3 140 61 62
3 130 101 128
3 140 111 128
3 101 174 59
3 128 101 60
3 60 61 128
3 58 59 174
3 60 101 59
3 58 174 158
3 128 61 140
3 174 101 95
3 102 95 87
3 82 88 87
3 167 88 108
3 167 115 91
3 88 167 172
3 88 172 102
3 172 167 91
3 172 91 155
3 102 172 158
3 115 79 91
3 88 102 87
3 86 127 176
3 120 115 167
3 127 70 154
3 176 127 153
3 94 79 153
3 153 79 176
3 154 153 127
3 96 153 154
3 154 105 196
3 176 79 115
3 176 115 171
3 91 79 125
3 172 155 158
3 91 125 155
3 155 125 55
3 158 155 56
3 56 57 158
3 55 56 155
3 125 54 55
3 57 58 158
3 53 94 96
3 94 125 79
3 196 96 154
3 52 96 196
3 53 54 94
3 51 52 196
3 53 96 52
3 51 196 50
3 94 54 125
3 96 94 153
3 70 110 154
3 158 174 102
3 181 70 127
3 70 107 90
3 17 18 106
3 18 19 106
3 19 20 129
3 19 129 106
3 21 75 20
3 106 164 159
3 22 23 169
3 23 24 133
3 113 156 169
3 169 156 22
3 133 169 23
3 143 169 133
3 24 25 133
3 22 156 21
3 156 75 21
3 164 106 187
3 187 106 129
3 195 129 75
3 187 129 195
3 90 187 189
3 187 90 164
3 189 187 195
3 189 182 90
3 195 163 189
3 90 107 164
3 113 168 156
3 113 169 143
3 113 143 136
3 156 168 75
3 163 168 184
3 163 195 168
3 163 184 166
3 184 168 113
3 113 136 184
3 163 162 189
3 143 199 136
3 168 195 75
3 129 20 75
3 184 136 178
3 133 77 143
3 70 90 110
3 25 26 85
3 26 27 109
3 26 109 85
3 109 27 126
3 84 109 126
3 85 109 150
3 27 28 126
3 85 77 133
3 118 28 29
3 29 30 149
3 30 31 149
3 31 30 1
3 149 31 32
3 28 118 126
3 149 118 29
3 76 77 150
3 77 85 150
3 150 109 84
3 83 150 84
3 76 193 199
3 76 199 77
3 83 76 150
3 83 137 76
3 84 148 83
3 199 143 77
3 149 185 118
3 185 149 32
3 185 32 33
3 118 185 157
3 177 148 157
3 148 84 157
3 92 33 34
3 92 157 185
3 185 33 92
3 148 175 83
3 84 126 157
3 157 126 118
3 136 199 142
3 133 25 85
3 157 92 177
3 90 182 110
3 182 189 162
3 182 162 114
3 110 182 194
3 110 194 105
3 194 182 114
3 170 194 114
3 105 194 49
3 162 188 114
3 105 154 110
3 160 166 178
3 178 166 184
3 178 136 142
3 99 178 142
3 197 188 160
3 160 188 166
3 99 160 178
3 114 188 179
3 99 145 89
3 166 188 162
3 162 163 166
3 98 160 99
3 50 105 49
3 49 194 170
3 179 170 114
3 47 170 179
3 48 49 170
3 47 48 170
3 179 46 47
3 45 197 98
3 197 179 188
3 89 98 99
3 44 98 89
3 45 46 197
3 43 44 89
3 45 98 44
3 43 89 131
3 197 46 179
3 160 98 197
3 145 99 142
3 105 50 196
3 74 193 137
3 193 76 137
3 137 83 175
3 122 137 175
3 74 131 145
3 74 145 193
3 122 74 137
3 122 151 74
3 175 147 122
3 193 145 142
3 92 103 177
3 103 92 34
3 103 34 35
3 177 103 72
3 177 72 147
3 100 72 103
3 192 147 72
3 122 147 134
3 177 147 175
3 142 199 193
3 100 103 35
3 74 151 131
3 122 134 151
3 151 134 40
3 131 151 42
3 41 42 151
3 40 41 151
3 134 39 40
3 42 43 131
3 38 192 100
3 192 134 147
3 36 100 35
3 37 100 36
3 38 39 192
3 2 37 36
3 38 100 37
3 192 39 134
3 100 192 72
3 131 89 145
3 148 177 175
3 17 106 159
POINT_DATA 200
SCALARS P float 1
LOOKUP_TABLE default
1248.429387
-3.577723
-8.070156
-1108.534845
1041.901571
918.163104
988.811865
888.217731
815.447347
852.131017
763.258681
734.723977
694.393826
654.281572
617.636358
585.018779
545.940778
512.789340
470.674328
431.822283
396.663498
361.227286
327.734314
284.823891
256.270100
214.774780
177.121819
142.460238
101.805811
70.838064
29.595006
8.125543
-0.519383
4.597171
-4.439117
-6.702368
1.595737
-35.731948
-82.155906
-116.563732
-152.393171
-190.468552
-227.728583
-267.634746
-297.056997
-336.432845
-385.476815
-395.331570
-490.713012
-467.576968
-520.399399
-558.056404
-598.892632
-637.889512
-670.665332
-728.791134
-732.551857
-792.936568
-808.982251
-847.743701
-879.348727
-945.735450
-952.571037
-986.251268
-505.787948
-353.672213
-33.022396
66.879713
664.763869
490.847029
-55.492316
495.543651
-33.739284
415.736376
-82.318520
251.233374
31.025690
95.532504
507.038862
-288.891400
-108.371325
444.334309
101.393116
24.829580
50.813721
135.442439
54.975061
-51.307043
-90.493636
-167.690295
5.213198
-309.974522
0.713888
469.145725
-397.633594
-293.328051
-365.631896
299.356705
-197.167953
-115.489104
-22.195453
-544.016791
-305.451558
-3.420442
93.905921
-310.857307
306.363291
70.688225
79.347596
103.449169
-173.378298
-390.534131
241.864253
131.762013
-208.804674
-102.637426
-19.974879
365.092995
49.913635
309.997975
65.541661
358.524685
-63.252814
228.411620
624.145158
-411.497462
78.730833
-83.928045
-549.314066
277.978586
-339.266553
-136.442496
-53.585072
163.972296
-80.970215
263.273497
41.532767
-17.613561
387.056559
565.038192
-589.712724
238.530471
-28.581334
115.228858
537.911768
-99.525761
501.732444
-40.851871
11.659651
25.902827
74.313981
-110.561952
282.705312
-251.390163
-228.896518
-455.089104
222.536345
26.101440
-478.713283
330.775270
-140.136162
261.758785
-51.953154
39.191559
195.997599
33.788572
-44.811940
-108.780164
146.205816
195.847266
-243.681772
57.004286
-308.496098
-343.448427
-511.959751
-14.427076
-96.309390
-3.959293
-31.148342
-262.919615
-640.702081
66.612638
-110.335290
556.525157
48.795784
14.601383
-299.661079
149.945587
-149.443075
13.778170
228.754432
423.725645
-49.179113
-21.703588
-295.220555
155.723696
-358.074659
-218.319543
177.156443
36.807578
