# vtk DataFile Version 2.0
patchtest_tri3_mix
ASCII
DATASET POLYDATA
POINTS 66 float
0.000000 0.000000 0.000000
48.000000 44.000000 0.000000
48.000000 60.000000 0.000000
0.000000 44.000000 0.000000
4.800000 4.400000 0.000000
9.600000 8.800000 0.000000
14.400000 13.200000 0.000000
19.200000 17.600000 0.000000
24.000000 22.000000 0.000000
28.800000 26.400000 0.000000
33.600000 30.800000 0.000000
38.400000 35.200000 0.000000
43.200000 39.600000 0.000000
48.000000 47.200000 0.000000
48.000000 50.400000 0.000000
48.000000 53.600000 0.000000
48.000000 56.800000 0.000000
43.200000 58.400000 0.000000
38.400000 56.800000 0.000000
33.600000 55.200000 0.000000
28.800000 53.600000 0.000000
24.000000 52.000000 0.000000
19.200000 50.400000 0.000000
14.400000 48.800000 0.000000
9.600000 47.200000 0.000000
4.800000 45.600000 0.000000
0.000000 35.200000 0.000000
0.000000 26.400000 0.000000
0.000000 17.600000 0.000000
0.000000 8.800000 0.000000
4.800000 12.640000 0.000000
4.800000 20.880000 0.000000
4.800000 29.120000 0.000000
4.800000 37.360000 0.000000
9.600000 16.480000 0.000000
9.600000 24.160000 0.000000
9.600000 31.840000 0.000000
9.600000 39.520000 0.000000
14.400000 20.320000 0.000000
14.400000 27.440000 0.000000
14.400000 34.560000 0.000000
14.400000 41.680000 0.000000
19.200000 24.160000 0.000000
19.200000 30.720000 0.000000
19.200000 37.280000 0.000000
19.200000 43.840000 0.000000
24.000000 28.000000 0.000000
24.000000 34.000000 0.000000
24.000000 40.000000 0.000000
24.000000 46.000000 0.000000
28.800000 31.840000 0.000000
28.800000 37.280000 0.000000
28.800000 42.720000 0.000000
28.800000 48.160000 0.000000
33.600000 35.680000 0.000000
33.600000 40.560000 0.000000
33.600000 45.440000 0.000000
33.600000 50.320000 0.000000
38.400000 39.520000 0.000000
38.400000 43.840000 0.000000
38.400000 48.160000 0.000000
38.400000 52.480000 0.000000
43.200000 43.360000 0.000000
43.200000 47.120000 0.000000
43.200000 50.880000 0.000000
43.200000 54.640000 0.000000
POLYGONS 100 400
3 0 4 29
3 29 4 30
3 29 30 28
3 28 30 31
3 28 31 27
3 27 31 32
3 27 32 26
3 26 32 33
3 26 33 3
3 3 33 25
3 4 5 30
3 30 5 34
3 30 34 31
3 31 34 35
3 31 35 32
3 32 35 36
3 32 36 33
3 33 36 37
3 33 37 25
3 25 37 24
3 5 6 34
3 34 6 38
3 34 38 35
3 35 38 39
3 35 39 36
3 36 39 40
3 36 40 37
3 37 40 41
3 37 41 24
3 24 41 23
3 6 7 38
3 38 7 42
3 38 42 39
3 39 42 43
3 39 43 40
3 40 43 44
3 40 44 41
3 41 44 45
3 41 45 23
3 23 45 22
3 7 8 42
3 42 8 46
3 42 46 43
3 43 46 47
3 43 47 44
3 44 47 48
3 44 48 45
3 45 48 49
3 45 49 22
3 22 49 21
3 8 9 46
3 46 9 50
3 46 50 47
3 47 50 51
3 47 51 48
3 48 51 52
3 48 52 49
3 49 52 53
3 49 53 21
3 21 53 20
3 9 10 50
3 50 10 54
3 50 54 51
3 51 54 55
3 51 55 52
3 52 55 56
3 52 56 53
3 53 56 57
3 53 57 20
3 20 57 19
3 10 11 54
3 54 11 58
3 54 58 55
3 55 58 59
3 55 59 56
3 56 59 60
3 56 60 57
3 57 60 61
3 57 61 19
3 19 61 18
3 11 12 58
3 58 12 62
3 58 62 59
3 59 62 63
3 59 63 60
3 60 63 64
3 60 64 61
3 61 64 65
3 61 65 18
3 18 65 17
3 12 1 62
3 62 1 13
3 62 13 63
3 63 13 14
3 63 14 64
3 64 14 15
3 64 15 65
3 65 15 16
3 65 16 17
3 17 16 2
POINT_DATA 66
SCALARS P float 1
LOOKUP_TABLE default
5.133927
4.398243
-0.272155
-24.596955
4.744281
5.345943
6.949807
9.630851
11.522495
12.352700
12.289835
11.594743
9.609681
7.299771
4.407210
8.031035
4.727142
-3.716470
-8.206269
-8.829623
-10.318365
-11.007421
-11.700155
-12.011056
-12.410534
-16.665741
-3.303658
4.710688
7.806509
6.450791
5.996647
5.241993
1.873782
-8.054475
6.433224
4.500105
-0.984365
-3.107321
6.664232
4.308625
-1.676663
-4.900918
7.074346
4.630773
-0.737804
-3.729159
7.656088
4.656544
-0.841639
-3.738818
8.136478
5.073864
-0.346963
-3.103589
8.141310
4.656646
-0.412331
-2.521126
8.349751
4.958693
-0.289263
-0.522142
5.494242
3.703503
0.874197
0.614725
