# vtk DataFile Version 2.0
patchtest_tri3_mix
ASCII
DATASET POLYDATA
POINTS 160 float
0.000000 -6.000000 0.000000
48.000000 -6.000000 0.000000
48.000000 6.000000 0.000000
0.000000 6.000000 0.000000
2.000000 -6.000000 0.000000
4.000000 -6.000000 0.000000
6.000000 -6.000000 0.000000
8.000000 -6.000000 0.000000
10.000000 -6.000000 0.000000
12.000000 -6.000000 0.000000
14.000000 -6.000000 0.000000
16.000000 -6.000000 0.000000
18.000000 -6.000000 0.000000
20.000000 -6.000000 0.000000
22.000000 -6.000000 0.000000
24.000000 -6.000000 0.000000
26.000000 -6.000000 0.000000
28.000000 -6.000000 0.000000
30.000000 -6.000000 0.000000
32.000000 -6.000000 0.000000
34.000000 -6.000000 0.000000
36.000000 -6.000000 0.000000
38.000000 -6.000000 0.000000
40.000000 -6.000000 0.000000
42.000000 -6.000000 0.000000
44.000000 -6.000000 0.000000
46.000000 -6.000000 0.000000
48.000000 -4.000000 0.000000
48.000000 -2.000000 0.000000
48.000000 -0.000000 0.000000
48.000000 2.000000 0.000000
48.000000 4.000000 0.000000
46.000000 6.000000 0.000000
44.000000 6.000000 0.000000
42.000000 6.000000 0.000000
40.000000 6.000000 0.000000
38.000000 6.000000 0.000000
36.000000 6.000000 0.000000
34.000000 6.000000 0.000000
32.000000 6.000000 0.000000
30.000000 6.000000 0.000000
28.000000 6.000000 0.000000
26.000000 6.000000 0.000000
24.000000 6.000000 0.000000
22.000000 6.000000 0.000000
20.000000 6.000000 0.000000
18.000000 6.000000 0.000000
16.000000 6.000000 0.000000
14.000000 6.000000 0.000000
12.000000 6.000000 0.000000
10.000000 6.000000 0.000000
8.000000 6.000000 0.000000
6.000000 6.000000 0.000000
4.000000 6.000000 0.000000
2.000000 6.000000 0.000000
0.000000 4.000000 0.000000
0.000000 2.000000 0.000000
0.000000 0.000000 0.000000
0.000000 -2.000000 0.000000
0.000000 -4.000000 0.000000
6.066747 0.006550 0.000000
22.132657 4.087510 0.000000
43.622748 3.614564 0.000000
10.546333 3.976921 0.000000
28.594558 -3.959421 0.000000
23.226940 0.803612 0.000000
36.188205 -4.001888 0.000000
16.076170 0.021955 0.000000
31.680498 3.988247 0.000000
15.161762 3.992614 0.000000
37.402374 -2.092508 0.000000
20.007897 -1.553674 0.000000
34.069892 3.974867 0.000000
24.551659 4.063271 0.000000
26.840423 0.036570 0.000000
41.307486 3.639362 0.000000
36.497672 3.913394 0.000000
2.020740 -3.993497 0.000000
29.279132 3.985077 0.000000
38.510468 -0.246171 0.000000
12.102034 -2.015045 0.000000
40.348266 -1.434851 0.000000
42.858923 -1.164065 0.000000
23.862182 -3.998853 0.000000
2.057411 3.999708 0.000000
18.119796 -2.040874 0.000000
10.114322 1.981345 0.000000
32.382196 -2.040208 0.000000
4.064221 2.009994 0.000000
12.276420 -4.004086 0.000000
38.972539 3.752687 0.000000
26.217456 -4.020221 0.000000
25.644935 1.977863 0.000000
20.217884 0.323410 0.000000
6.071170 -3.995249 0.000000
35.168671 1.930891 0.000000
8.352093 3.992718 0.000000
19.837018 3.983950 0.000000
41.318170 -3.652433 0.000000
2.024083 0.008472 0.000000
34.873855 -2.082992 0.000000
18.721259 2.051170 0.000000
42.627053 1.314712 0.000000
10.174639 -4.003902 0.000000
29.922876 -2.011512 0.000000
10.101286 -2.014091 0.000000
10.097857 -0.013747 0.000000
31.390421 -0.034424 0.000000
16.472784 2.030736 0.000000
19.102424 -3.975823 0.000000
8.111628 -3.999000 0.000000
8.087912 -2.003684 0.000000
8.103148 2.001513 0.000000
27.519022 -1.968778 0.000000
21.145398 2.060707 0.000000
37.631227 1.837643 0.000000
32.769224 1.967734 0.000000
45.860004 -3.734382 0.000000
28.037553 2.024433 0.000000
6.218780 3.999726 0.000000
33.758412 -0.072222 0.000000
14.441412 -3.990482 0.000000
12.825979 3.977207 0.000000
4.126235 4.000905 0.000000
24.747594 -0.160726 0.000000
12.103211 -0.009392 0.000000
22.050444 -0.396591 0.000000
14.092977 0.011235 0.000000
2.033093 2.008024 0.000000
23.047187 -1.977671 0.000000
6.068663 -1.995904 0.000000
12.158620 1.980408 0.000000
2.023739 -1.992489 0.000000
14.084924 -1.997003 0.000000
26.865385 3.957968 0.000000
29.085059 -0.003820 0.000000
33.621043 -3.999864 0.000000
21.026055 -2.713867 0.000000
45.853762 3.641625 0.000000
45.492730 -1.338631 0.000000
43.628571 -3.571645 0.000000
6.088546 2.009441 0.000000
4.042921 -3.993695 0.000000
38.893843 -3.729981 0.000000
40.195268 1.361519 0.000000
23.428977 2.393749 0.000000
16.073063 -1.968857 0.000000
18.059050 0.031310 0.000000
36.143350 -0.122844 0.000000
14.277415 2.001331 0.000000
17.512912 4.019226 0.000000
31.088513 -3.968094 0.000000
4.046839 -1.992536 0.000000
25.260344 -2.059880 0.000000
45.262805 1.187422 0.000000
4.046694 0.009236 0.000000
8.083705 -0.001873 0.000000
16.702278 -3.992660 0.000000
21.649846 -4.179521 0.000000
30.399460 2.000394 0.000000
POLYGONS 258 1032
3 0 4 59
3 59 4 77
3 5 77 4
3 142 5 6
3 142 77 5
3 6 7 94
3 7 110 94
3 110 7 8
3 105 110 103
3 94 110 111
3 6 94 142
3 142 94 130
3 58 77 132
3 77 58 59
3 99 57 132
3 132 57 58
3 132 77 142
3 152 99 132
3 152 132 142
3 111 105 106
3 152 142 130
3 111 156 130
3 156 111 106
3 112 156 106
3 152 130 60
3 105 80 106
3 94 111 130
3 110 105 111
3 156 60 130
3 110 8 103
3 9 10 89
3 9 89 103
3 10 121 89
3 11 121 10
3 80 103 89
3 9 103 8
3 157 12 109
3 109 12 13
3 158 13 14
3 129 137 158
3 109 13 158
3 12 157 11
3 11 157 121
3 89 133 80
3 133 89 121
3 127 125 133
3 133 125 80
3 146 133 121
3 146 127 133
3 157 146 121
3 125 106 80
3 109 137 71
3 137 109 158
3 71 147 85
3 71 85 109
3 126 71 137
3 85 147 146
3 126 137 129
3 85 146 157
3 109 85 157
3 93 71 126
3 158 14 83
3 80 105 103
3 86 106 125
3 99 155 128
3 99 152 155
3 99 128 56
3 128 155 88
3 84 128 88
3 55 56 128
3 155 60 88
3 99 56 57
3 112 141 156
3 106 86 112
3 119 141 112
3 141 60 156
3 96 112 86
3 88 141 123
3 96 63 50
3 60 141 88
3 152 60 155
3 119 112 96
3 55 84 54
3 84 55 128
3 54 3 55
3 53 54 84
3 84 123 53
3 123 119 52
3 123 84 88
3 51 52 119
3 51 119 96
3 96 50 51
3 123 52 53
3 141 119 123
3 96 86 63
3 127 67 149
3 127 146 67
3 122 63 131
3 131 63 86
3 149 131 127
3 149 122 131
3 67 108 149
3 131 86 125
3 147 93 101
3 93 147 71
3 147 101 108
3 101 93 114
3 150 108 101
3 69 149 108
3 93 126 114
3 147 108 67
3 146 147 67
3 97 101 114
3 122 69 48
3 122 149 69
3 48 49 122
3 47 48 69
3 69 150 47
3 122 49 63
3 150 97 46
3 150 69 108
3 45 46 97
3 61 44 45
3 61 45 97
3 150 46 47
3 97 150 101
3 61 97 114
3 63 49 50
3 127 131 125
3 114 126 65
3 15 16 83
3 16 91 83
3 91 16 17
3 64 91 17
3 153 83 91
3 83 129 158
3 18 19 151
3 19 136 151
3 136 19 20
3 100 136 66
3 151 136 87
3 17 18 64
3 18 151 64
3 91 113 153
3 153 129 83
3 153 124 129
3 74 124 153
3 113 74 153
3 124 65 126
3 64 104 113
3 91 64 113
3 87 100 120
3 104 64 151
3 87 107 104
3 107 87 120
3 107 120 116
3 113 104 135
3 100 148 120
3 151 87 104
3 136 100 87
3 107 135 104
3 136 20 66
3 83 14 15
3 21 22 66
3 22 23 143
3 22 143 66
3 24 98 23
3 70 100 66
3 25 26 117
3 26 27 117
3 27 26 1
3 117 27 28
3 24 25 140
3 25 117 140
3 70 143 81
3 143 70 66
3 70 79 148
3 79 70 81
3 144 79 81
3 148 79 115
3 143 98 81
3 148 100 70
3 98 140 82
3 140 98 24
3 140 139 82
3 140 117 139
3 139 28 29
3 102 81 82
3 117 28 139
3 98 82 81
3 143 23 98
3 154 82 139
3 66 20 21
3 120 148 95
3 124 92 65
3 92 124 74
3 73 145 92
3 92 145 65
3 118 134 92
3 73 92 134
3 92 74 118
3 145 61 114
3 107 159 135
3 107 116 159
3 78 118 159
3 159 118 135
3 116 68 159
3 118 78 134
3 116 95 72
3 135 118 74
3 74 113 135
3 72 68 116
3 61 73 43
3 61 145 73
3 42 43 73
3 41 42 134
3 73 134 42
3 61 43 44
3 78 68 40
3 68 78 159
3 39 40 68
3 39 68 72
3 72 38 39
3 78 40 41
3 41 134 78
3 72 37 38
3 114 65 145
3 144 102 75
3 144 81 102
3 76 95 115
3 120 95 116
3 144 90 115
3 75 90 144
3 102 62 75
3 115 95 148
3 154 29 30
3 154 102 82
3 154 138 62
3 138 154 30
3 138 30 31
3 75 62 34
3 154 62 102
3 144 115 79
3 33 62 138
3 76 90 36
3 90 76 115
3 36 37 76
3 35 36 90
3 75 35 90
3 37 72 76
3 34 35 75
3 62 33 34
3 33 138 32
3 2 32 31
3 31 32 138
3 76 72 95
3 154 139 29
3 126 129 124
POINT_DATA 160
SCALARS P float 1
LOOKUP_TABLE default
1102.950382
-2.458879
-3.303395
-1046.075532
961.403371
940.956462
880.436743
846.456032
800.903738
757.754454
718.470066
672.692084
631.292536
593.686476
571.735064
499.497338
467.434855
417.184521
377.942852
335.590482
291.246930
252.026872
207.248641
166.299627
121.699084
82.730543
37.159303
5.113381
-0.048268
1.296518
-2.863240
-0.253989
-44.233188
-87.356215
-130.958543
-171.018131
-218.344353
-253.913399
-307.885520
-338.688953
-393.139808
-422.709475
-478.608480
-510.564301
-577.409995
-592.599460
-649.110520
-680.872659
-733.117933
-759.840409
-819.598336
-847.094005
-902.555222
-938.948748
-990.421310
-523.011264
-273.753178
29.063992
397.730623
593.302475
1.658122
-331.724699
-49.848912
-483.348160
256.954546
-41.192224
157.446571
-3.881405
-209.851640
-423.244448
77.402330
120.016535
-178.971340
-304.395048
0.126318
-77.406263
-145.738193
596.519332
-241.505631
9.996310
248.488997
38.137084
22.005226
323.647810
-616.111946
217.273832
-263.391207
109.668886
-292.799886
477.748143
-108.393194
288.371142
-148.093943
-16.649604
556.174505
-84.226550
-521.377485
-363.808581
83.277911
-8.866440
93.844252
-209.989627
-24.502411
498.313294
124.074928
257.313133
2.009354
2.791153
-220.107747
374.754228
529.335723
277.411426
-268.003112
138.058466
-194.964920
-64.939113
-103.726082
27.791099
-140.420335
-542.775079
5.084644
439.643261
-460.412347
-571.534484
4.544571
1.980699
23.061895
3.474686
-333.606198
166.610630
281.183875
-237.790239
284.702067
234.086555
-273.299133
1.719718
192.137297
289.863591
-22.200865
11.624373
53.017614
-293.271197
580.523848
113.054042
-37.719291
-220.297594
207.919909
3.983894
4.527070
-234.799729
-398.904038
222.349176
306.597309
162.956488
-10.871364
1.075519
2.560572
418.500534
334.509219
-120.115560
