# vtk DataFile Version 2.0
cantilever_Q4P1_mix
ASCII
DATASET POLYDATA
POINTS 496 float
0.000000 0.000000 0.000000
48.000000 44.000000 0.000000
48.000000 60.000000 0.000000
0.000000 44.000000 0.000000
2.973780 2.725965 0.000000
5.805951 5.322122 0.000000
8.503257 7.794652 0.000000
11.072120 10.149443 0.000000
13.518656 12.392102 0.000000
15.848691 14.527966 0.000000
18.067771 16.562123 0.000000
20.181181 18.499416 0.000000
22.193952 20.344456 0.000000
24.110877 22.101637 0.000000
25.936520 23.775143 0.000000
27.675227 25.368959 0.000000
29.331139 26.886878 0.000000
30.908198 28.332515 0.000000
32.410159 29.709313 0.000000
33.840598 31.020548 0.000000
35.202921 32.269344 0.000000
36.500371 33.458674 0.000000
37.736038 34.591368 0.000000
38.912864 35.670125 0.000000
40.033650 36.697513 0.000000
41.101066 37.675977 0.000000
42.117652 38.607848 0.000000
43.085830 39.495344 0.000000
44.007903 40.340578 0.000000
44.886069 41.145563 0.000000
45.722417 41.912215 0.000000
46.518939 42.642361 0.000000
47.277531 43.337737 0.000000
48.000000 45.066667 0.000000
48.000000 46.133333 0.000000
48.000000 47.200000 0.000000
48.000000 48.266667 0.000000
48.000000 49.333333 0.000000
48.000000 50.400000 0.000000
48.000000 51.466667 0.000000
48.000000 52.533333 0.000000
48.000000 53.600000 0.000000
48.000000 54.666667 0.000000
48.000000 55.733333 0.000000
48.000000 56.800000 0.000000
48.000000 57.866667 0.000000
48.000000 58.933333 0.000000
47.277531 59.759177 0.000000
46.518939 59.506313 0.000000
45.722417 59.240806 0.000000
44.886069 58.962023 0.000000
44.007903 58.669301 0.000000
43.085830 58.361943 0.000000
42.117652 58.039217 0.000000
41.101066 57.700355 0.000000
40.033650 57.344550 0.000000
38.912864 56.970955 0.000000
37.736038 56.578679 0.000000
36.500371 56.166790 0.000000
35.202921 55.734307 0.000000
33.840598 55.280199 0.000000
32.410159 54.803386 0.000000
30.908198 54.302733 0.000000
29.331139 53.777046 0.000000
27.675227 53.225076 0.000000
25.936520 52.645507 0.000000
24.110877 52.036959 0.000000
22.193952 51.397984 0.000000
20.181181 50.727060 0.000000
18.067771 50.022590 0.000000
15.848691 49.282897 0.000000
13.518656 48.506219 0.000000
11.072120 47.690707 0.000000
8.503257 46.834419 0.000000
5.805951 45.935317 0.000000
2.973780 44.991260 0.000000
0.000000 41.066667 0.000000
0.000000 38.133333 0.000000
0.000000 35.200000 0.000000
0.000000 32.266667 0.000000
0.000000 29.333333 0.000000
0.000000 26.400000 0.000000
0.000000 23.466667 0.000000
0.000000 20.533333 0.000000
0.000000 17.600000 0.000000
0.000000 14.666667 0.000000
0.000000 11.733333 0.000000
0.000000 8.800000 0.000000
0.000000 5.866667 0.000000
0.000000 2.933333 0.000000
2.901112 5.480535 0.000000
2.881646 8.284104 0.000000
2.876701 11.101062 0.000000
2.875540 13.921510 0.000000
2.875286 16.742795 0.000000
2.875234 19.564266 0.000000
2.875224 22.385776 0.000000
2.875222 25.207293 0.000000
2.875221 28.028812 0.000000
2.875221 30.850331 0.000000
2.875223 33.671850 0.000000
2.875313 36.493400 0.000000
2.877493 39.315660 0.000000
2.894699 42.143013 0.000000
5.714302 7.950388 0.000000
5.682543 10.633917 0.000000
5.673182 13.338115 0.000000
5.670703 16.048663 0.000000
5.670099 18.760941 0.000000
5.669961 21.473650 0.000000
5.669931 24.186459 0.000000
5.669925 26.899290 0.000000
5.669924 29.612125 0.000000
5.669924 32.324961 0.000000
5.669939 35.037803 0.000000
5.670355 37.750780 0.000000
5.675230 40.465273 0.000000
5.704032 43.187890 0.000000
8.408732 10.315688 0.000000
8.373056 12.891087 0.000000
8.361399 15.488668 0.000000
8.358001 18.093877 0.000000
8.357094 20.701386 0.000000
8.356868 23.309525 0.000000
8.356815 25.917822 0.000000
8.356804 28.526158 0.000000
8.356801 31.134503 0.000000
8.356802 33.742849 0.000000
8.356856 36.351214 0.000000
8.357622 38.959821 0.000000
8.364101 41.570372 0.000000
8.396800 44.189845 0.000000
10.979760 12.572513 0.000000
10.943794 15.047705 0.000000
10.931464 17.544739 0.000000
10.927646 20.049638 0.000000
10.926557 22.557059 0.000000
10.926268 25.065219 0.000000
10.926195 27.573578 0.000000
10.926178 30.081989 0.000000
10.926174 32.590412 0.000000
10.926179 35.098840 0.000000
10.926273 37.607298 0.000000
10.927246 40.116056 0.000000
10.934273 42.626876 0.000000
10.967419 45.146597 0.000000
13.429948 14.723203 0.000000
13.395005 17.104009 0.000000
13.382776 19.505813 0.000000
13.378870 21.915310 0.000000
13.377711 24.327345 0.000000
13.377388 26.740152 0.000000
13.377303 29.153179 0.000000
13.377281 31.566265 0.000000
13.377277 33.979367 0.000000
13.377286 36.392475 0.000000
13.377405 38.805621 0.000000
13.378453 41.219084 0.000000
13.385493 43.634590 0.000000
13.417786 46.058709 0.000000
15.763970 16.771905 0.000000
15.730460 19.063189 0.000000
15.718635 21.374523 0.000000
15.714805 23.693247 0.000000
15.713643 26.014438 0.000000
15.713310 28.336395 0.000000
15.713218 30.658576 0.000000
15.713195 32.980819 0.000000
15.713189 35.303079 0.000000
15.713201 37.625347 0.000000
15.713330 39.947655 0.000000
15.714380 42.270278 0.000000
15.721216 44.594875 0.000000
15.752227 46.927720 0.000000
17.987011 18.723182 0.000000
17.955020 20.929333 0.000000
17.943697 23.154592 0.000000
17.940006 25.386908 0.000000
17.938875 27.621591 0.000000
17.938545 29.857014 0.000000
17.938453 32.092657 0.000000
17.938429 34.328363 0.000000
17.938423 36.564085 0.000000
17.938436 38.799817 0.000000
17.938566 41.035589 0.000000
17.939587 43.271665 0.000000
17.946145 45.509631 0.000000
17.975766 47.755466 0.000000
20.104244 20.581584 0.000000
20.073752 22.706696 0.000000
20.062947 24.850010 0.000000
20.059416 27.000050 0.000000
20.058329 29.152350 0.000000
20.058010 31.305359 0.000000
20.057920 33.458580 0.000000
20.057895 35.611862 0.000000
20.057890 37.765161 0.000000
20.057903 39.918469 0.000000
20.058029 42.071816 0.000000
20.059009 44.225455 0.000000
20.065271 46.380896 0.000000
20.093512 48.543838 0.000000
22.120672 22.351503 0.000000
22.091624 24.399449 0.000000
22.081326 26.464731 0.000000
22.077958 28.536420 0.000000
22.076920 30.610263 0.000000
22.076614 32.684783 0.000000
22.076527 34.759505 0.000000
22.076503 36.834286 0.000000
22.076498 38.909084 0.000000
22.076510 40.983890 0.000000
22.076632 43.058734 0.000000
22.077568 45.133856 0.000000
22.083537 47.210697 0.000000
22.110443 49.294682 0.000000
24.041084 24.037145 0.000000
24.013417 26.011603 0.000000
24.003608 28.002572 0.000000
24.000398 29.999643 0.000000
23.999408 31.998766 0.000000
23.999115 33.998535 0.000000
23.999032 35.998497 0.000000
23.999009 37.998514 0.000000
23.999004 39.998548 0.000000
23.999016 41.998590 0.000000
23.999132 43.998668 0.000000
24.000025 45.999011 0.000000
24.005712 48.000991 0.000000
24.031340 50.009776 0.000000
25.870050 25.642519 0.000000
25.843700 27.546990 0.000000
25.834356 29.467186 0.000000
25.831299 31.393194 0.000000
25.830356 33.321156 0.000000
25.830077 35.249733 0.000000
25.829997 37.178494 0.000000
25.829975 39.107308 0.000000
25.829971 41.036137 0.000000
25.829982 42.964975 0.000000
25.830093 44.893847 0.000000
25.830943 46.822972 0.000000
25.836360 48.753655 0.000000
25.860769 50.690820 0.000000
27.611922 27.171447 0.000000
27.586827 29.009264 0.000000
27.577928 30.862057 0.000000
27.575016 32.720386 0.000000
27.574118 34.580576 0.000000
27.573852 36.441351 0.000000
27.573776 38.302302 0.000000
27.573755 40.163304 0.000000
27.573751 42.024320 0.000000
27.573762 43.885343 0.000000
27.573867 45.746400 0.000000
27.574677 47.607698 0.000000
27.579836 49.470479 0.000000
27.603083 51.339434 0.000000
29.270849 28.627569 0.000000
29.246948 30.401907 0.000000
29.238473 32.190507 0.000000
29.235700 33.984379 0.000000
29.234844 35.780024 0.000000
29.234591 37.576227 0.000000
29.234519 39.372596 0.000000
29.234499 41.169014 0.000000
29.234495 42.965446 0.000000
29.234505 44.761885 0.000000
29.234605 46.558356 0.000000
29.235377 48.355056 0.000000
29.240291 50.153169 0.000000
29.262430 51.957161 0.000000
30.850779 30.014352 0.000000
30.828016 31.728233 0.000000
30.819945 33.455697 0.000000
30.817304 35.188183 0.000000
30.816488 36.922356 0.000000
30.816247 38.657061 0.000000
30.816179 40.391925 0.000000
30.816159 42.126834 0.000000
30.816156 43.861757 0.000000
30.816165 45.596687 0.000000
30.816261 47.331647 0.000000
30.816996 49.066825 0.000000
30.821676 50.803350 0.000000
30.842761 52.545473 0.000000
32.355474 31.335097 0.000000
32.333795 32.991401 0.000000
32.326108 34.660640 0.000000
32.323593 36.334662 0.000000
32.322816 38.010291 0.000000
32.322587 39.686426 0.000000
32.322521 41.362713 0.000000
32.322503 43.039044 0.000000
32.322499 44.715387 0.000000
32.322509 46.391737 0.000000
32.322600 48.068115 0.000000
32.323300 49.744701 0.000000
32.327757 51.422569 0.000000
32.347838 53.105770 0.000000
33.788517 32.592950 0.000000
33.767871 34.194417 0.000000
33.760550 35.808205 0.000000
33.758154 37.426547 0.000000
33.757414 39.046420 0.000000
33.757196 40.666775 0.000000
33.757133 42.287274 0.000000
33.757116 43.907815 0.000000
33.757113 45.528368 0.000000
33.757122 47.148927 0.000000
33.757208 48.769513 0.000000
33.757875 50.390297 0.000000
33.762119 52.012303 0.000000
33.781245 53.639386 0.000000
35.153320 33.790905 0.000000
35.133657 35.340148 0.000000
35.126684 36.901124 0.000000
35.124403 38.466437 0.000000
35.123698 40.033209 0.000000
35.123490 41.600440 0.000000
35.123431 43.167808 0.000000
35.123414 44.735216 0.000000
35.123411 46.302635 0.000000
35.123419 47.870060 0.000000
35.123502 49.437511 0.000000
35.124137 51.005151 0.000000
35.128179 52.573953 0.000000
35.146394 54.147592 0.000000
36.453132 34.931815 0.000000
36.434405 36.431320 0.000000
36.427765 37.941999 0.000000
36.425592 39.456809 0.000000
36.424921 40.973009 0.000000
36.424723 42.489645 0.000000
36.424666 44.006412 0.000000
36.424651 45.523217 0.000000
36.424647 47.040032 0.000000
36.424656 48.556854 0.000000
36.424734 50.073700 0.000000
36.425339 51.590725 0.000000
36.429189 53.108859 0.000000
36.446536 54.631598 0.000000
37.691048 36.018396 0.000000
37.673214 37.470531 0.000000
[...]
POINT_DATA 496
VECTORS U float
0.010236 -0.007080 0.000000
-5.438298 25.334768 0.000000
-19.715689 27.363716 0.000000
-0.010236 0.007080 0.000000
-0.005254 0.718560 0.000000
0.045071 1.330488 0.000000
0.070342 1.866997 0.000000
0.209411 2.347060 0.000000
0.369518 2.826819 0.000000
0.599931 3.344515 0.000000
0.813253 3.930191 0.000000
1.029553 4.593129 0.000000
1.190094 5.337091 0.000000
1.310219 6.153008 0.000000
1.359657 7.033324 0.000000
1.352974 7.964317 0.000000
1.278812 8.936813 0.000000
1.149517 9.938976 0.000000
0.963464 10.963199 0.000000
0.729982 12.000764 0.000000
0.451443 13.045779 0.000000
0.134596 14.091973 0.000000
-0.217034 15.134692 0.000000
-0.598517 16.169266 0.000000
-1.006388 17.191886 0.000000
-1.436957 18.198882 0.000000
-1.887291 19.187006 0.000000
-2.354612 20.153190 0.000000
-2.836748 21.094461 0.000000
-3.331671 22.008110 0.000000
-3.838502 22.890953 0.000000
-4.356051 23.741077 0.000000
-4.889261 24.552129 0.000000
-6.295552 25.372215 0.000000
-7.086600 25.445921 0.000000
-7.860480 25.536505 0.000000
-8.634086 25.648189 0.000000
-9.418695 25.775711 0.000000
-10.222047 25.917111 0.000000
-11.050699 26.069432 0.000000
-11.910601 26.230524 0.000000
-12.807927 26.398096 0.000000
-13.749232 26.570084 0.000000
-14.743418 26.744532 0.000000
-15.800903 26.919352 0.000000
-16.944256 27.092617 0.000000
-18.202405 27.261575 0.000000
-19.302642 26.224125 0.000000
-18.876106 25.200456 0.000000
-18.447307 24.216593 0.000000
-18.016919 23.251708 0.000000
-17.581237 22.292075 0.000000
-17.137260 21.330017 0.000000
-16.681784 20.360353 0.000000
-16.211854 19.379929 0.000000
-15.724524 18.387110 0.000000
-15.217159 17.381633 0.000000
-14.687357 16.364495 0.000000
-14.133294 15.337790 0.000000
-13.553527 14.304661 0.000000
-12.947460 13.269003 0.000000
-12.314758 12.235551 0.000000
-11.656211 11.209357 0.000000
-10.972320 10.196248 0.000000
-10.265280 9.201815 0.000000
-9.535712 8.232747 0.000000
-8.787477 7.294473 0.000000
-8.019776 6.394811 0.000000
-7.239395 5.537682 0.000000
-6.440186 4.733728 0.000000
-5.636580 3.981202 0.000000
-4.804752 3.301265 0.000000
-3.985922 2.668022 0.000000
-3.089829 2.152790 0.000000
-2.274875 1.588817 0.000000
-1.111106 1.356430 0.000000
0.010236 -0.007080 0.000000
-0.010236 0.007080 0.000000
0.010236 -0.007080 0.000000
-0.010236 0.007080 0.000000
0.010236 -0.007080 0.000000
-0.010236 0.007080 0.000000
0.010236 -0.007080 0.000000
-0.010236 0.007080 0.000000
0.010236 -0.007080 0.000000
-0.010236 0.007080 0.000000
0.010236 -0.007080 0.000000
-0.010236 0.007080 0.000000
0.010236 -0.007080 0.000000
-0.010236 0.007080 0.000000
0.020193 0.677511 0.000000
0.003920 0.666338 0.000000
0.040380 0.621234 0.000000
0.035130 0.571493 0.000000
0.061083 0.466812 0.000000
0.054881 0.375332 0.000000
0.064767 0.236229 0.000000
0.056220 0.137213 0.000000
0.046791 0.003952 0.000000
0.036239 -0.059442 0.000000
-0.004004 -0.136102 0.000000
-0.021543 -0.095925 0.000000
-0.149300 -0.004923 0.000000
-0.237148 0.364135 0.000000
0.034671 1.287269 0.000000
0.098119 1.223540 0.000000
0.126126 1.141477 0.000000
0.181291 1.001871 0.000000
0.196390 0.858514 0.000000
0.216420 0.667116 0.000000
0.206073 0.506053 0.000000
0.182612 0.320675 0.000000
0.141776 0.204779 0.000000
0.058066 0.100480 0.000000
-0.034398 0.116703 0.000000
-0.246113 0.218644 0.000000
-0.496758 0.528562 0.000000
-1.187356 1.140271 0.000000
0.162713 1.802661 0.000000
0.228720 1.712672 0.000000
0.321064 1.570404 0.000000
0.365401 1.412030 0.000000
0.404208 1.208161 0.000000
0.397258 1.023541 0.000000
0.365192 0.819992 0.000000
0.295565 0.676858 0.000000
0.173126 0.553275 0.000000
0.013411 0.535828 0.000000
-0.260490 0.598919 0.000000
-0.606543 0.813489 0.000000
-1.225090 1.205473 0.000000
-2.071432 1.605545 0.000000
0.317498 2.274368 0.000000
0.450575 2.153883 0.000000
0.529325 2.005977 0.000000
0.592874 1.814822 0.000000
0.596553 1.631461 0.000000
0.563611 1.430713 0.000000
0.475242 1.277922 0.000000
0.325771 1.143396 0.000000
0.118809 1.096159 0.000000
-0.195484 1.114082 0.000000
-0.593722 1.246950 0.000000
-1.185381 1.497572 0.000000
-1.934305 1.802695 0.000000
-2.862620 2.221562 0.000000
0.548442 2.743507 0.000000
0.666669 2.623121 0.000000
0.760364 2.461351 0.000000
0.782057 2.295610 0.000000
0.756732 2.111579 0.000000
0.661358 1.961863 0.000000
0.498212 1.825347 0.000000
0.263507 1.757485 0.000000
-0.072714 1.739218 0.000000
-0.497565 1.810419 0.000000
-1.075045 1.965639 0.000000
-1.779100 2.185440 0.000000
-2.642807 2.496821 0.000000
-3.658310 2.850624 0.000000
0.763490 3.259618 0.000000
0.892704 3.136264 0.000000
0.939616 2.998155 0.000000
0.930078 2.839934 0.000000
0.838745 2.702549 0.000000
0.674116 2.572235 0.000000
0.427889 2.493631 0.000000
0.084333 2.451265 0.000000
-0.350361 2.478945 0.000000
-0.914585 2.568588 0.000000
-1.590539 2.720091 0.000000
-2.407535 2.944894 0.000000
-3.352236 3.215774 0.000000
-4.422004 3.564060 0.000000
0.982503 3.841699 0.000000
1.060965 3.733561 0.000000
1.074392 3.605397 0.000000
0.996604 3.486222 0.000000
0.840647 3.368422 0.000000
0.595668 3.287499 0.000000
0.256033 3.231934 0.000000
-0.176536 3.230736 0.000000
-0.724554 3.275729 0.000000
-1.376291 3.375373 0.000000
-2.154196 3.533492 0.000000
-3.045970 3.737521 0.000000
-4.055906 4.004654 0.000000
-5.186996 4.326148 0.000000
1.143417 4.507066 0.000000
1.185102 4.406602 0.000000
1.128383 4.307297 0.000000
0.989046 4.205561 0.000000
0.755041 4.128327 0.000000
0.427839 4.067911 0.000000
0.006225 4.048902 0.000000
-0.521795 4.064296 0.000000
-1.148840 4.125991 0.000000
-1.890572 4.234153 0.000000
-2.737188 4.385362 0.000000
-3.695523 4.588820 0.000000
-4.762045 4.836998 0.000000
-5.937077 5.149174 0.000000
1.262175 5.250554 0.000000
1.231533 5.166316 0.000000
1.114498 5.080331 0.000000
0.898570 5.009841 0.000000
0.590008 4.950040 0.000000
0.185814 4.921008 0.000000
-0.318787 4.917469 0.000000
-0.919459 4.952129 0.000000
-1.626070 5.023657 0.000000
-2.431180 5.133871 0.000000
-3.341457 5.287547 0.000000
-4.352056 5.480305 0.000000
-5.463713 5.722661 0.000000
-6.682546 6.018987 0.000000
1.307181 6.069810 0.000000
1.215655 5.993470 0.000000
1.022567 5.929041 0.000000
0.736879 5.872308 0.000000
0.354635 5.838108 0.000000
-0.123954 5.822834 0.000000
-0.696609 5.838499 0.000000
-1.368548 5.883497 0.000000
-2.134231 5.962376 0.000000
-2.998769 6.077423 0.000000
-3.957559 6.227257 0.000000
-5.012316 6.417737 0.000000
-6.163484 6.648748 0.000000
-7.415495 6.934752 0.000000
1.293945 6.950624 0.000000
1.126271 6.885898 0.000000
0.865992 6.831108 0.000000
0.508622 6.793824 0.000000
0.057692 6.771160 0.000000
-0.485810 6.773350 0.000000
-1.123519 6.799101 0.000000
-1.851309 6.854119 0.000000
-2.672269 6.939403 0.000000
-3.582296 7.055650 0.000000
-4.583302 7.206205 0.000000
-5.674077 7.390183 0.000000
-6.856373 7.614468 0.000000
-8.138176 7.887561 0.000000
1.210914 7.884537 0.000000
0.977110 7.825316 0.000000
0.646266 7.783800 0.000000
0.223785 7.755517 0.000000
-0.290055 7.747576 0.000000
-0.894219 7.759000 0.000000
-1.585558 7.795609 0.000000
-2.365168 7.857871 0.000000
-3.229376 7.947729 0.000000
-4.179498 8.067018 0.000000
-5.213835 8.215305 0.000000
-6.333728 8.395938 0.000000
-7.541949 8.611074 0.000000
-8.845892 8.872864 0.000000
1.071186 8.857944 0.000000
0.767623 8.806019 0.000000
0.373778 8.770870 0.000000
-0.110410 8.754074 0.000000
-0.681993 8.754112 0.000000
-1.338408 8.776005 0.000000
-2.079000 8.820089 0.000000
-2.900380 8.888938 0.000000
-3.802839 8.983523 0.000000
-4.784360 9.103905 0.000000
-5.846027 9.251705 0.000000
-6.988906 9.426904 0.000000
-8.216481 9.634275 0.000000
-9.538152 9.883378 0.000000
0.873290 9.862558 0.000000
0.508059 9.814539 0.000000
0.053290 9.787531 0.000000
-0.486818 9.777232 0.000000
-1.109910 9.786577 0.000000
-1.813877 9.815706 0.000000
-2.595448 9.867345 0.000000
-3.453740 9.942057 0.000000
-4.386372 10.040255 0.000000
-5.393789 10.162490 0.000000
-6.476295 10.308125 0.000000
-7.636307 10.478733 0.000000
-8.878399 10.676896 0.000000
-10.211821 10.913521 0.000000
0.626972 10.888151 0.000000
0.201645 10.845034 0.000000
-0.307908 10.822951 0.000000
-0.899184 10.820354 0.000000
-1.568856 10.836343 0.000000
-2.313577 10.873217 0.000000
-3.131307 10.931388 0.000000
-4.019204 11.011502 0.000000
-4.976755 11.113454 0.000000
-6.003545 11.236309 0.000000
-7.101435 11.380102 0.000000
-8.273456 11.544676 0.000000
-9.524806 11.733650 0.000000
-10.865739 11.956848 0.000000
0.334772 11.928035 0.000000
-0.144424 11.888335 0.000000
-0.704937 11.872146 0.000000
-1.342346 11.875341 0.000000
-2.052971 11.898686 0.000000
-2.833667 11.942350 0.000000
-3.681032 12.007087 0.000000
-4.593408 12.092482 0.000000
-5.569503 12.197410 0.000000
-6.610376 12.320862 0.000000
-7.718314 12.461479 0.000000
-8.897457 12.619718 0.000000
-10.153946 12.798317 0.000000
-11.497868 13.007813 0.000000
0.003632 12.974948 0.000000
-0.526121 12.939287 0.000000
-1.132591 12.927844 0.000000
-1.811403 12.937577 0.000000
-2.558297 12.967589 0.000000
-3.369188 13.018431 0.000000
-4.241172 13.089614 0.000000
-5.171899 13.179956 0.000000
-6.161275 13.287710 0.000000
-7.210728 13.410644 0.000000
-8.323921 13.547538 0.000000
-9.505989 13.698089 0.000000
-10.763670 13.865720 0.000000
-12.107302 14.060824 0.000000
-0.362804 14.023627 0.000000
-0.938297 13.991573 0.000000
-1.586667 13.985540 0.000000
-2.302383 14.001445 0.000000
-3.080460 14.038729 0.000000
-3.916685 14.096791 0.000000
-4.807478 14.174502 0.000000
-5.751276 14.269710 0.000000
-6.748301 14.379485 0.000000
-7.801445 14.501263 0.000000
-8.915485 14.633060 0.000000
-10.096711 14.775049 0.000000
-11.352597 14.930653 0.000000
-12.693054 15.111063 0.000000
-0.759515 15.068790 0.000000
-1.377193 15.040829 0.000000
-2.063246 15.040125 0.000000
-2.811424 15.062899 0.000000
-3.616075 15.107721 0.000000
-4.472215 15.173445 0.000000
-5.376549 15.257823 0.000000
-6.327699 15.357467 0.000000
-7.327288 15.468686 0.000000
-8.379435 15.588044 0.000000
-9.490482 15.713732 0.000000
-10.667840 15.845910 0.000000
-11.919466 15.988814 0.000000
-13.254954 16.154204 0.000000
-1.182954 16.106217 0.000000
-1.838976 16.082482 0.000000
-2.558875 16.087775 0.000000
-3.335275 16.117880 0.000000
-4.161560 16.170965 0.000000
-5.032456 16.244801 0.000000
-5.944589 16.335825 0.000000
-6.897763 16.439519 0.000000
-7.894908 16.551112 0.000000
-8.942019 16.667020 0.000000
-10.046861 16.785349 0.000000
-11.217940 16.906906 0.000000
-12.463695 17.036479 0.000000
-13.793101 17.186883 0.000000
-1.629381 17.131872 0.000000
-2.320482 17.112893 0.000000
-3.070471 17.124747 0.000000
-3.870740 17.163075 0.000000
-4.713760 17.225205 0.000000
-5.593747 17.307562 0.000000
-6.508100 17.405152 0.000000
-7.457931 17.512055 0.000000
-8.448318 17.623018 0.000000
-9.486977 17.734307 0.000000
-10.583161 17.844528 0.000000
-11.746261 17.954909 0.000000
-12.985093 18.071024 0.000000
-14.308243 18.206694 0.000000
-2.095797 18.142271 0.000000
-2.818791 18.128587 0.000000
-3.595214 18.147914 0.000000
-4.414920 18.195522 0.000000
-5.269254 18.267530 0.000000
-6.152544 18.358746 0.000000
-7.063321 18.462321 0.000000
-8.005123 18.571440 0.000000
-8.985136 18.680622 0.000000
-10.012922 18.786634 0.000000
-11.098729 18.888522 0.000000
-12.252676 18.987931 0.000000
-13.484106 19.090923 0.000000
-14.801442 19.212477 0.000000
-2.579395 19.134167 0.000000
-3.331409 19.126530 0.000000
-4.130532 19.154512 0.000000
-4.964763 19.212601 0.000000
-5.824545 19.295362 0.000000
-6.704828 19.395191 0.000000
-7.606794 19.503748 0.000000
-8.536665 19.613774 0.000000
-9.504030 19.720443 0.000000
-10.519461 19.821283 0.000000
-11.593829 19.915633 0.000000
-12.737840 20.005146 0.000000
-13.961600 20.096049 0.000000
-15.274192 20.204404 0.000000
-3.077913 20.104556 0.000000
-3.856105 20.104033 0.000000
-4.673900 20.142069 0.000000
-5.517003 20.212146 0.000000
-6.375383 20.305906 0.000000
-7.246587 20.413398 0.000000
-8.135294 20.525245 0.000000
-9.051148 20.635050 0.000000
-10.004884 20.739430 0.000000
-11.007415 20.836416 0.000000
-12.069747 20.925291 0.000000
-13.203091 21.007129 0.000000
-14.418945 21.087766 0.000000
-15.728115 21.184151 0.000000
-3.589349 21.050716 0.000000
-4.391003 21.058570 0.000000
-5.222561 21.108759 0.000000
-6.067333 21.191794 0.000000
-6.917031 21.295924 0.000000
-7.773635 21.408792 0.000000
-8.647104 21.521963 0.000000
-9.548653 21.631598 0.000000
-10.489056 21.735251 0.000000
-11.478848 21.831222 0.000000
-12.528736 21.918133 0.000000
-13.650565 21.995884 0.000000
-14.857830 22.069088 0.000000
-16.164971 22.155099 0.000000
-4.112460 21.969859 0.000000
-4.934164 21.988427 0.000000
-5.772627 22.052634 0.000000
-6.610230 22.148938 0.000000
-7.443715 22.260429 0.000000
-8.283631 22.375275 0.000000
-9.142439 22.489391 0.000000
-10.030989 22.600432 0.000000
-10.959304 22.706613 0.000000
-11.936890 22.805876 0.000000
-12.974080 22.895853 0.000000
-14.083202 22.974742 0.000000
-15.280450 23.044874 0.000000
-16.586333 23.122635 0.000000
-4.646170 22.860039 0.000000
-5.483062 22.891738 0.000000
-6.318035 22.972348 0.000000
-7.137365 23.078278 0.000000
-7.952022 23.191414 0.000000
-8.776994 23.307257 0.000000
-9.623554 23.423916 0.000000
-10.501519 23.539857 0.000000
-11.419317 23.653185 0.000000
-12.385599 23.761210 0.000000
-13.410046 23.860730 0.000000
-14.505116 23.948047 0.000000
-15.689810 24.021876 0.000000
-16.993693 24.095150 0.000000
-5.191140 23.718947 0.000000
-6.032633 23.770296 0.000000
-6.847119 23.863736 0.000000
-7.644256 23.969961 0.000000
-8.443648 24.083110 0.000000
-9.257318 24.201996 0.000000
-10.095177 24.325077 0.000000
-10.964952 24.450747 0.000000
-11.874097 24.576542 0.000000
-12.830227 24.699615 0.000000
-13.842454 24.816062 0.000000
-14.923018 24.921468 0.000000
-16.091447 25.010423 0.000000
-17.388966 25.086131 0.000000
-5.746736 24.554725 0.000000
-6.568323 24.625109 0.000000
-7.355869 24.717410 0.000000
-8.137623 24.822018 0.000000
-8.926888 24.938935 0.000000
-9.733828 25.065678 0.000000
-10.565891 25.200582 0.000000
-11.429813 25.341191 0.000000
-12.332060 25.485141 0.000000
-13.279751 25.629530 0.000000
-14.281245 25.771133 0.000000
-15.348582 25.905359 0.000000
-16.500432 26.027690 0.000000
-17.778486 26.124817 0.000000
CELL_DATA 450
SCALARS P float 1
LOOKUP_TABLE default
6.114805
4.537100
7.394254
4.892510
8.738683
5.228386
8.405654
4.082546
5.600891
0.934356
-0.039368
-4.331530
-9.173703
-11.607770
-25.239109
4.906442
6.580428
4.944929
7.852911
4.979205
7.643975
3.953219
5.418648
1.426541
0.960864
-2.631902
-5.869149
-7.743310
-15.145211
-9.585358
5.647348
5.153584
7.268062
5.119476
7.301931
4.188262
5.547819
2.079639
1.970939
-1.181789
-3.317793
-5.165602
-9.741702
-8.064062
-11.924581
5.578414
6.924461
5.581997
7.278118
4.737093
5.925564
2.906440
3.002096
0.161788
-1.260637
-3.176224
-6.276641
-6.289280
-9.746568
-9.812857
6.849103
6.354068
7.523435
5.558849
6.506061
3.899238
4.067625
1.481109
0.502060
-1.462200
-3.702032
-4.527237
-7.411266
-7.912264
-10.245315
7.464406
8.026221
6.628924
7.262219
5.046698
5.178318
2.821194
2.096708
0.124941
-1.581026
-2.825446
-5.208395
-6.081844
-8.413340
-9.692347
8.794577
7.932923
8.178820
6.336652
6.341066
4.203944
3.598214
1.657639
0.286753
-1.179017
-3.174008
-4.313406
-6.491257
-7.776926
-9.756479
9.463890
9.245965
7.754582
7.557899
5.636290
5.049081
3.170528
2.001489
0.424886
-1.285040
-2.599658
-4.585682
-5.923526
-7.895872
-9.527732
10.452436
9.282112
8.825638
7.114731
6.471582
4.677887
3.616151
1.995876
0.486720
-0.935617
-2.741139
-4.132526
-6.027596
-7.592631
-9.470984
10.899530
10.136732
8.628229
7.875135
6.182160
5.159120
3.538515
2.163223
0.681744
-0.972349
-2.403790
-4.195208
-5.723143
-7.553735
-9.286733
11.478897
10.160589
9.261060
7.678557
6.644995
5.053001
3.759485
2.253631
0.717957
-0.737141
-2.423573
-3.926693
-5.683733
-7.327779
-9.137148
11.694231
10.626128
9.158004
8.080402
6.536389
5.285136
3.779743
2.331382
0.867609
-0.724607
-2.207052
-3.881516
-5.455751
-7.188774
-8.908950
11.964019
10.609268
9.467517
7.983804
6.746150
5.258741
3.870872
2.410620
0.897002
-0.565387
-2.159482
-3.676467
-5.328097
-6.949698
-8.667585
12.021494
10.806442
9.389521
8.146276
6.688776
5.339696
3.892119
2.440470
0.998627
-0.523350
-1.992046
-3.563739
-5.101506
-6.728824
-8.368581
12.096088
10.747777
9.488106
8.067955
6.741212
5.312584
3.907248
2.486212
1.025249
-0.402059
-1.899923
-3.365536
-4.905659
-6.445817
-8.043792
12.053816
10.773793
9.394694
8.078900
6.672939
5.300217
3.899344
2.487191
1.095166
-0.337616
-1.740797
-3.198825
-4.650029
-6.156168
-7.678966
12.005033
10.667841
9.356382
7.974686
6.623313
5.240804
3.865132
2.502076
1.123916
-0.225530
-1.607945
-2.978057
-4.394825
-5.826021
-7.295084
11.886785
10.577273
9.219887
7.881285
6.514279
5.163231
3.821989
2.486584
1.181901
-0.132728
-1.428107
-2.756620
-4.097334
-5.484029
-6.893248
11.744630
10.410869
9.079396
7.724388
6.387036
5.059409
3.753632
2.483242
1.226501
-0.000710
-1.242160
-2.489954
-3.784811
-5.116785
-6.491117
11.549731
10.222877
8.876480
7.543369
6.220351
4.930034
3.681171
2.469485
1.301583
0.144119
-1.007757
-2.198558
-3.434347
-4.739318
-6.096225
11.315977
9.976035
8.639961
7.312504
6.022922
4.780238
3.597198
2.475614
1.395167
0.339757
-0.736022
-1.854031
-3.054939
-4.344273
-5.722064
11.027593
9.684623
8.345024
7.041835
5.787778
4.613083
3.519247
2.503317
1.539906
0.585691
-0.396040
-1.458288
-2.627981
-3.935646
-5.373489
10.683751
9.327634
7.998528
6.714671
5.524303
4.432859
3.462020
2.579308
1.747089
0.913508
0.016746
-0.985336
-2.149015
-3.500350
-5.054124
10.268816
8.905854
7.575669
6.343029
5.220903
4.267066
3.445078
2.729191
2.048671
1.332928
0.532067
-0.425838
-1.591232
-3.026895
-4.756006
9.775343
8.388676
7.087558
5.894057
4.917893
4.124339
3.513813
2.987312
2.458275
1.875130
1.158848
0.253996
-0.933388
-2.480678
-4.464246
9.172326
7.782278
6.472501
5.420279
4.602286
4.080723
3.710914
3.369662
3.008991
2.543663
1.930243
1.073994
-0.122735
-1.818202
-4.140797
8.454820
6.990424
5.792606
4.859281
4.401370
4.201262
4.050954
3.915179
3.695190
3.366910
2.853976
2.084043
0.893961
-0.938683
-3.728573
7.501886
6.078518
4.866799
4.427253
4.435143
4.489305
4.586748
4.604539
4.541933
4.340302
3.959558
3.313531
2.233427
0.294905
-3.060066
6.372335
4.577439
4.066010
4.376050
4.673505
5.024791
5.280945
5.466105
5.536650
5.480614
5.266188
4.803937
3.994322
2.290610
-1.866731
3.902052
3.130152
3.959435
4.596918
5.239740
5.750353
6.173082
6.487470
6.700794
6.808424
6.787181
6.645850
6.210472
5.520254
1.678420
