# vtk DataFile Version 2.0
cantilever_quad8_mix
ASCII
DATASET POLYDATA
POINTS 45 float
0.000000 0.000000 0.000000
48.000000 44.000000 0.000000
48.000000 60.000000 0.000000
0.000000 44.000000 0.000000
6.000000 5.500000 0.000000
12.000000 11.000000 0.000000
18.000000 16.500000 0.000000
24.000000 22.000000 0.000000
30.000000 27.500000 0.000000
36.000000 33.000000 0.000000
42.000000 38.500000 0.000000
48.000000 48.000000 0.000000
48.000000 52.000000 0.000000
48.000000 56.000000 0.000000
42.000000 58.000000 0.000000
36.000000 56.000000 0.000000
30.000000 54.000000 0.000000
24.000000 52.000000 0.000000
18.000000 50.000000 0.000000
12.000000 48.000000 0.000000
6.000000 46.000000 0.000000
0.000000 33.000000 0.000000
0.000000 22.000000 0.000000
0.000000 11.000000 0.000000
6.000000 15.625000 0.000000
6.000000 25.750000 0.000000
6.000000 35.875000 0.000000
12.000000 20.250000 0.000000
12.000000 29.500000 0.000000
12.000000 38.750000 0.000000
18.000000 24.875000 0.000000
18.000000 33.250000 0.000000
18.000000 41.625000 0.000000
24.000000 29.500000 0.000000
24.000000 37.000000 0.000000
24.000000 44.500000 0.000000
30.000000 34.125000 0.000000
30.000000 40.750000 0.000000
30.000000 47.375000 0.000000
36.000000 38.750000 0.000000
36.000000 44.500000 0.000000
36.000000 50.250000 0.000000
42.000000 43.375000 0.000000
42.000000 48.250000 0.000000
42.000000 53.125000 0.000000
POLYGONS 64 256
3 0 4 23
3 23 4 24
3 23 24 22
3 22 24 25
3 22 25 21
3 21 25 26
3 21 26 3
3 3 26 20
3 4 5 24
3 24 5 27
3 24 27 25
3 25 27 28
3 25 28 26
3 26 28 29
3 26 29 20
3 20 29 19
3 5 6 27
3 27 6 30
3 27 30 28
3 28 30 31
3 28 31 29
3 29 31 32
3 29 32 19
3 19 32 18
3 6 7 30
3 30 7 33
3 30 33 31
3 31 33 34
3 31 34 32
3 32 34 35
3 32 35 18
3 18 35 17
3 7 8 33
3 33 8 36
3 33 36 34
3 34 36 37
3 34 37 35
3 35 37 38
3 35 38 17
3 17 38 16
3 8 9 36
3 36 9 39
3 36 39 37
3 37 39 40
3 37 40 38
3 38 40 41
3 38 41 16
3 16 41 15
3 9 10 39
3 39 10 42
3 39 42 40
3 40 42 43
3 40 43 41
3 41 43 44
3 41 44 15
3 15 44 14
3 10 1 42
3 42 1 11
3 42 11 43
3 43 11 12
3 43 12 44
3 44 12 13
3 44 13 14
3 14 13 2
POINT_DATA 45
SCALARS P float 1
LOOKUP_TABLE default
5.370512
4.394673
-0.413847
-26.506037
4.689618
6.183773
9.140409
11.697267
12.561894
12.419464
11.267458
5.042738
6.185148
9.476064
-7.144394
-7.198257
-9.664353
-10.285171
-10.478353
-11.980706
-9.934923
-0.494938
7.101968
6.871213
6.185993
3.030700
-4.444490
6.316122
2.102874
-5.130380
6.582976
1.954243
-3.418886
7.297514
2.025173
-3.668178
7.725215
2.464702
-2.650883
7.288298
2.143555
-1.976530
6.917516
1.706579
0.359175
