# vtk DataFile Version 2.0
cantilever_quad8_mix
ASCII
DATASET POLYDATA
POINTS 1770 float
0.000000 0.000000 0.000000
48.000000 44.000000 0.000000
48.000000 60.000000 0.000000
0.000000 44.000000 0.000000
0.827586 0.758621 0.000000
1.655172 1.517241 0.000000
2.482759 2.275862 0.000000
3.310345 3.034483 0.000000
4.137931 3.793103 0.000000
4.965517 4.551724 0.000000
5.793103 5.310345 0.000000
6.620690 6.068966 0.000000
7.448276 6.827586 0.000000
8.275862 7.586207 0.000000
9.103448 8.344828 0.000000
9.931034 9.103448 0.000000
10.758621 9.862069 0.000000
11.586207 10.620690 0.000000
12.413793 11.379310 0.000000
13.241379 12.137931 0.000000
14.068966 12.896552 0.000000
14.896552 13.655172 0.000000
15.724138 14.413793 0.000000
16.551724 15.172414 0.000000
17.379310 15.931034 0.000000
18.206897 16.689655 0.000000
19.034483 17.448276 0.000000
19.862069 18.206897 0.000000
20.689655 18.965517 0.000000
21.517241 19.724138 0.000000
22.344828 20.482759 0.000000
23.172414 21.241379 0.000000
24.000000 22.000000 0.000000
24.827586 22.758621 0.000000
25.655172 23.517241 0.000000
26.482759 24.275862 0.000000
27.310345 25.034483 0.000000
28.137931 25.793103 0.000000
28.965517 26.551724 0.000000
29.793103 27.310345 0.000000
30.620690 28.068966 0.000000
31.448276 28.827586 0.000000
32.275862 29.586207 0.000000
33.103448 30.344828 0.000000
33.931034 31.103448 0.000000
34.758621 31.862069 0.000000
35.586207 32.620690 0.000000
36.413793 33.379310 0.000000
37.241379 34.137931 0.000000
38.068966 34.896552 0.000000
38.896552 35.655172 0.000000
39.724138 36.413793 0.000000
40.551724 37.172414 0.000000
41.379310 37.931034 0.000000
42.206897 38.689655 0.000000
43.034483 39.448276 0.000000
43.862069 40.206897 0.000000
44.689655 40.965517 0.000000
45.517241 41.724138 0.000000
46.344828 42.482759 0.000000
47.172414 43.241379 0.000000
48.000000 44.551724 0.000000
48.000000 45.103448 0.000000
48.000000 45.655172 0.000000
48.000000 46.206897 0.000000
48.000000 46.758621 0.000000
48.000000 47.310345 0.000000
48.000000 47.862069 0.000000
48.000000 48.413793 0.000000
48.000000 48.965517 0.000000
48.000000 49.517241 0.000000
48.000000 50.068966 0.000000
48.000000 50.620690 0.000000
48.000000 51.172414 0.000000
48.000000 51.724138 0.000000
48.000000 52.275862 0.000000
48.000000 52.827586 0.000000
48.000000 53.379310 0.000000
48.000000 53.931034 0.000000
48.000000 54.482759 0.000000
48.000000 55.034483 0.000000
48.000000 55.586207 0.000000
48.000000 56.137931 0.000000
48.000000 56.689655 0.000000
48.000000 57.241379 0.000000
48.000000 57.793103 0.000000
48.000000 58.344828 0.000000
48.000000 58.896552 0.000000
48.000000 59.448276 0.000000
47.172414 59.724138 0.000000
46.344828 59.448276 0.000000
45.517241 59.172414 0.000000
44.689655 58.896552 0.000000
43.862069 58.620690 0.000000
43.034483 58.344828 0.000000
42.206897 58.068966 0.000000
41.379310 57.793103 0.000000
40.551724 57.517241 0.000000
39.724138 57.241379 0.000000
38.896552 56.965517 0.000000
38.068966 56.689655 0.000000
37.241379 56.413793 0.000000
36.413793 56.137931 0.000000
35.586207 55.862069 0.000000
34.758621 55.586207 0.000000
33.931034 55.310345 0.000000
33.103448 55.034483 0.000000
32.275862 54.758621 0.000000
31.448276 54.482759 0.000000
30.620690 54.206897 0.000000
29.793103 53.931034 0.000000
28.965517 53.655172 0.000000
28.137931 53.379310 0.000000
27.310345 53.103448 0.000000
26.482759 52.827586 0.000000
25.655172 52.551724 0.000000
24.827586 52.275862 0.000000
24.000000 52.000000 0.000000
23.172414 51.724138 0.000000
22.344828 51.448276 0.000000
21.517241 51.172414 0.000000
20.689655 50.896552 0.000000
19.862069 50.620690 0.000000
19.034483 50.344828 0.000000
18.206897 50.068966 0.000000
17.379310 49.793103 0.000000
16.551724 49.517241 0.000000
15.724138 49.241379 0.000000
14.896552 48.965517 0.000000
14.068966 48.689655 0.000000
13.241379 48.413793 0.000000
12.413793 48.137931 0.000000
11.586207 47.862069 0.000000
10.758621 47.586207 0.000000
9.931034 47.310345 0.000000
9.103448 47.034483 0.000000
8.275862 46.758621 0.000000
7.448276 46.482759 0.000000
6.620690 46.206897 0.000000
5.793103 45.931034 0.000000
4.965517 45.655172 0.000000
4.137931 45.379310 0.000000
3.310345 45.103448 0.000000
2.482759 44.827586 0.000000
1.655172 44.551724 0.000000
0.827586 44.275862 0.000000
0.000000 42.482759 0.000000
0.000000 40.965517 0.000000
0.000000 39.448276 0.000000
0.000000 37.931034 0.000000
0.000000 36.413793 0.000000
0.000000 34.896552 0.000000
0.000000 33.379310 0.000000
0.000000 31.862069 0.000000
0.000000 30.344828 0.000000
0.000000 28.827586 0.000000
0.000000 27.310345 0.000000
0.000000 25.793103 0.000000
0.000000 24.275862 0.000000
0.000000 22.758621 0.000000
0.000000 21.241379 0.000000
0.000000 19.724138 0.000000
0.000000 18.206897 0.000000
0.000000 16.689655 0.000000
0.000000 15.172414 0.000000
0.000000 13.655172 0.000000
0.000000 12.137931 0.000000
0.000000 10.620690 0.000000
0.000000 9.103448 0.000000
0.000000 7.586207 0.000000
0.000000 6.068966 0.000000
0.000000 4.551724 0.000000
0.000000 3.034483 0.000000
0.000000 1.517241 0.000000
0.827586 2.259215 0.000000
0.827586 3.759810 0.000000
0.827586 5.260404 0.000000
0.827586 6.760999 0.000000
0.827586 8.261593 0.000000
0.827586 9.762188 0.000000
0.827586 11.262782 0.000000
0.827586 12.763377 0.000000
0.827586 14.263971 0.000000
0.827586 15.764566 0.000000
0.827586 17.265161 0.000000
0.827586 18.765755 0.000000
0.827586 20.266350 0.000000
0.827586 21.766944 0.000000
0.827586 23.267539 0.000000
0.827586 24.768133 0.000000
0.827586 26.268728 0.000000
0.827586 27.769322 0.000000
0.827586 29.269917 0.000000
0.827586 30.770511 0.000000
0.827586 32.271106 0.000000
0.827586 33.771700 0.000000
0.827586 35.272295 0.000000
0.827586 36.772889 0.000000
0.827586 38.273484 0.000000
0.827586 39.774078 0.000000
0.827586 41.274673 0.000000
0.827586 42.775268 0.000000
1.655172 3.001189 0.000000
1.655172 4.485137 0.000000
1.655172 5.969084 0.000000
1.655172 7.453032 0.000000
1.655172 8.936980 0.000000
1.655172 10.420927 0.000000
1.655172 11.904875 0.000000
1.655172 13.388823 0.000000
1.655172 14.872771 0.000000
1.655172 16.356718 0.000000
1.655172 17.840666 0.000000
1.655172 19.324614 0.000000
1.655172 20.808561 0.000000
1.655172 22.292509 0.000000
1.655172 23.776457 0.000000
1.655172 25.260404 0.000000
1.655172 26.744352 0.000000
1.655172 28.228300 0.000000
1.655172 29.712247 0.000000
1.655172 31.196195 0.000000
1.655172 32.680143 0.000000
1.655172 34.164090 0.000000
1.655172 35.648038 0.000000
1.655172 37.131986 0.000000
1.655172 38.615933 0.000000
1.655172 40.099881 0.000000
1.655172 41.583829 0.000000
1.655172 43.067776 0.000000
2.482759 3.743163 0.000000
2.482759 5.210464 0.000000
2.482759 6.677765 0.000000
2.482759 8.145065 0.000000
2.482759 9.612366 0.000000
2.482759 11.079667 0.000000
2.482759 12.546968 0.000000
2.482759 14.014269 0.000000
2.482759 15.481570 0.000000
2.482759 16.948870 0.000000
2.482759 18.416171 0.000000
2.482759 19.883472 0.000000
2.482759 21.350773 0.000000
2.482759 22.818074 0.000000
2.482759 24.285375 0.000000
2.482759 25.752675 0.000000
2.482759 27.219976 0.000000
2.482759 28.687277 0.000000
2.482759 30.154578 0.000000
2.482759 31.621879 0.000000
2.482759 33.089180 0.000000
2.482759 34.556480 0.000000
2.482759 36.023781 0.000000
2.482759 37.491082 0.000000
2.482759 38.958383 0.000000
2.482759 40.425684 0.000000
2.482759 41.892985 0.000000
2.482759 43.360285 0.000000
3.310345 4.485137 0.000000
3.310345 5.935791 0.000000
3.310345 7.386445 0.000000
3.310345 8.837099 0.000000
3.310345 10.287753 0.000000
3.310345 11.738407 0.000000
3.310345 13.189061 0.000000
3.310345 14.639715 0.000000
3.310345 16.090369 0.000000
3.310345 17.541023 0.000000
3.310345 18.991677 0.000000
3.310345 20.442331 0.000000
3.310345 21.892985 0.000000
3.310345 23.343639 0.000000
3.310345 24.794293 0.000000
3.310345 26.244946 0.000000
3.310345 27.695600 0.000000
3.310345 29.146254 0.000000
3.310345 30.596908 0.000000
3.310345 32.047562 0.000000
3.310345 33.498216 0.000000
3.310345 34.948870 0.000000
3.310345 36.399524 0.000000
3.310345 37.850178 0.000000
3.310345 39.300832 0.000000
3.310345 40.751486 0.000000
3.310345 42.202140 0.000000
3.310345 43.652794 0.000000
4.137931 5.227111 0.000000
4.137931 6.661118 0.000000
4.137931 8.095125 0.000000
4.137931 9.529132 0.000000
4.137931 10.963139 0.000000
4.137931 12.397146 0.000000
4.137931 13.831153 0.000000
4.137931 15.265161 0.000000
4.137931 16.699168 0.000000
4.137931 18.133175 0.000000
4.137931 19.567182 0.000000
4.137931 21.001189 0.000000
4.137931 22.435196 0.000000
4.137931 23.869203 0.000000
4.137931 25.303210 0.000000
4.137931 26.737218 0.000000
4.137931 28.171225 0.000000
4.137931 29.605232 0.000000
4.137931 31.039239 0.000000
4.137931 32.473246 0.000000
4.137931 33.907253 0.000000
4.137931 35.341260 0.000000
4.137931 36.775268 0.000000
4.137931 38.209275 0.000000
4.137931 39.643282 0.000000
4.137931 41.077289 0.000000
4.137931 42.511296 0.000000
4.137931 43.945303 0.000000
4.965517 5.969084 0.000000
4.965517 7.386445 0.000000
4.965517 8.803805 0.000000
4.965517 10.221165 0.000000
4.965517 11.638526 0.000000
4.965517 13.055886 0.000000
4.965517 14.473246 0.000000
4.965517 15.890606 0.000000
4.965517 17.307967 0.000000
4.965517 18.725327 0.000000
4.965517 20.142687 0.000000
4.965517 21.560048 0.000000
4.965517 22.977408 0.000000
4.965517 24.394768 0.000000
4.965517 25.812128 0.000000
4.965517 27.229489 0.000000
4.965517 28.646849 0.000000
4.965517 30.064209 0.000000
4.965517 31.481570 0.000000
4.965517 32.898930 0.000000
4.965517 34.316290 0.000000
4.965517 35.733650 0.000000
4.965517 37.151011 0.000000
4.965517 38.568371 0.000000
4.965517 39.985731 0.000000
4.965517 41.403092 0.000000
4.965517 42.820452 0.000000
4.965517 44.237812 0.000000
5.793103 6.711058 0.000000
5.793103 8.111772 0.000000
5.793103 9.512485 0.000000
5.793103 10.913199 0.000000
5.793103 12.313912 0.000000
5.793103 13.714625 0.000000
5.793103 15.115339 0.000000
5.793103 16.516052 0.000000
5.793103 17.916766 0.000000
[...]
POINT_DATA 1770
SCALARS P float 1
LOOKUP_TABLE default
8.372362
0.107632
-0.416519
-74.420602
5.416400
6.566138
5.218221
5.564709
5.122101
5.061769
4.953907
4.917017
4.955087
5.057030
5.224444
5.456021
5.741167
6.076185
6.451188
6.859070
7.290899
7.738538
8.193652
8.648580
9.096344
9.530984
9.947539
10.342061
10.711391
11.053006
11.364878
11.645504
11.894099
12.110727
12.296145
12.451707
12.579145
12.680317
12.757008
12.810876
12.843450
12.856002
12.849413
12.824133
12.780134
12.716872
12.633189
12.527181
12.396038
12.235886
12.041523
11.805343
11.515211
11.154995
10.710408
10.169178
9.481918
8.515129
6.984202
4.725733
3.207818
8.374573
-5.867473
9.614296
-1.702794
7.991649
2.329203
6.972647
4.970497
6.634731
6.727170
6.490246
8.210258
6.084275
9.905345
5.044279
12.194732
3.098722
15.290160
0.259768
18.967515
-2.830041
22.229169
-4.669260
23.265822
-3.300132
19.929400
1.898444
11.239413
-9.519463
-10.672598
-9.680368
-6.395149
-7.897183
-6.284215
-7.066384
-6.577516
-6.985688
-6.994407
-7.280713
-7.477845
-7.745158
-7.997261
-8.260493
-8.515607
-8.763937
-9.000312
-9.223457
-9.431808
-9.624866
-9.802376
-9.964349
-10.111041
-10.242901
-10.360485
-10.464602
-10.556178
-10.636177
-10.705817
-10.766291
-10.818786
-10.864465
-10.904424
-10.939787
-10.971647
-11.001048
-11.029052
-11.056675
-11.084861
-11.114533
-11.146525
-11.181493
-11.220014
-11.262000
-11.307722
-11.356301
-11.403566
-11.458787
-11.507537
-11.496301
-11.867787
-11.007094
-13.783327
-9.392762
-20.469359
-11.750675
-15.282567
-26.057472
-10.776105
-13.037490
-6.725023
-5.540121
-2.575886
-0.868954
1.019888
2.531191
3.924606
5.110196
6.095532
6.872511
7.452556
7.838628
8.031425
8.038531
7.885089
7.605087
7.246769
6.818171
6.435134
5.964827
5.837020
5.399791
6.196393
5.888526
5.137006
5.756598
5.627657
5.829990
5.974591
6.224840
6.447739
6.624731
6.716100
6.703192
6.583279
6.359430
6.030278
5.584523
5.008313
4.294637
3.434007
2.401497
1.155943
-0.293529
-1.948766
-3.836356
-5.761041
-8.312732
-9.658876
-14.958506
-12.816480
-21.207377
5.636430
5.617076
5.661915
5.922492
6.207711
6.523195
6.836616
7.112589
7.325012
7.439130
7.422172
7.245523
6.893270
6.361452
5.649640
4.756269
3.687836
2.464069
1.094783
-0.441487
-2.155052
-4.071189
-6.289633
-8.756487
-11.923691
-13.259220
-23.556468
-17.968228
5.454450
5.586610
5.699035
5.869023
6.086492
6.278661
6.435311
6.516444
6.510971
6.407147
6.204158
5.899847
5.488027
4.958423
4.302218
3.510263
2.566423
1.453284
0.170657
-1.279282
-2.884979
-4.665755
-6.474338
-8.381708
-11.054765
-11.572796
-12.741755
-15.282027
5.376616
5.512648
5.755191
5.978479
6.245133
6.473969
6.675412
6.807718
6.857049
6.796817
6.608957
6.279227
5.801702
5.174742
4.398647
3.477857
2.421616
1.233606
-0.090303
-1.559240
-3.161213
-4.929881
-7.032804
-8.668851
-11.459301
-13.867280
-15.378315
-14.797305
5.405187
5.489322
5.744800
5.929422
6.146287
6.287555
6.379755
6.383972
6.301310
6.121638
5.843071
5.460266
4.967104
4.357103
3.623881
2.759443
1.757608
0.618525
-0.649562
-2.048530
-3.575989
-5.086142
-6.875024
-8.527018
-9.775042
-10.958541
-11.551947
-12.254872
5.339778
5.503780
5.819097
6.015188
6.247717
6.394529
6.493965
6.503570
6.420930
6.228419
5.918715
5.485829
4.927956
4.245140
3.440026
2.516983
1.479355
0.326239
-0.940187
-2.298904
-3.809662
-5.361024
-6.950301
-8.651434
-10.371684
-11.705992
-12.143010
-12.313521
5.382441
5.510515
5.844780
6.011154
6.202520
6.286457
6.312517
6.242758
6.084532
5.828333
5.472662
5.013183
4.446755
3.770212
2.980831
2.077412
1.062790
-0.055964
-1.281368
-2.581377
-3.946105
-5.381344
-6.800615
-8.092459
-9.123157
-10.150457
-10.745458
-11.203813
5.433888
5.584131
5.935972
6.094452
6.276476
6.342652
6.348847
6.255307
6.068438
5.777344
5.380822
4.876738
4.265510
3.548760
2.729450
1.810726
0.794611
-0.310477
-1.499728
-2.768885
-4.086906
-5.427362
-6.768188
-8.112904
-9.249954
-10.113878
-10.700488
-10.975875
5.527701
5.667079
6.016437
6.144451
6.288192
6.306039
6.259830
6.113875
5.878889
5.547281
5.119539
4.593991
3.970455
3.249121
2.431511
1.521690
0.524603
-0.553045
-1.696850
-2.893873
-4.126839
-5.369837
-6.546419
-7.632561
-8.606761
-9.431205
-10.189464
-10.584177
5.668190
5.801447
6.140985
6.246840
6.362691
6.348890
6.268276
6.086646
5.814934
5.446816
4.984023
4.426788
3.777129
3.037811
2.212220
1.304694
0.321892
-0.728812
-1.836929
-2.986581
-4.152596
-5.318757
-6.457107
-7.515603
-8.466939
-9.201008
-10.001411
-10.353955
5.842355
5.961639
6.275058
6.348193
6.423211
6.367311
6.242909
6.020096
5.710590
5.310014
4.820737
4.243609
3.580748
2.835042
2.010731
1.113164
0.149535
-0.870392
-1.934036
-3.027742
-4.130745
-5.214069
-6.254784
-7.215094
-8.147139
-8.878036
-9.776188
-10.164736
6.057556
6.160316
6.439508
6.481284
6.516202
6.422610
6.258482
5.998387
5.653401
5.221043
4.704379
4.105519
3.427707
2.674771
1.851506
0.963991
0.019774
-0.971810
-1.998313
-3.044278
-4.093856
-5.125737
-6.131185
-7.050966
-7.966427
-8.671417
-9.617078
-10.012738
6.304481
6.386481
6.619726
6.626098
6.615151
6.481494
6.276029
5.979213
5.600789
5.140179
4.600641
3.984964
3.296762
2.540422
1.721253
0.845737
-0.078085
-1.040474
-2.030126
-3.033037
-4.035236
-5.013744
-5.974330
-6.859215
-7.777322
-8.483755
-9.481278
-9.891049
6.581651
6.641272
6.820665
6.791389
6.732774
6.560105
6.314134
5.982093
5.571623
5.084130
4.522970
3.891737
3.194473
2.435961
1.621806
0.758635
-0.145719
-1.081875
-2.039270
-3.005234
-3.970782
-4.915020
-5.850385
-6.711878
-7.629491
-8.333561
-9.368295
-9.789048
6.882542
6.918026
7.035660
6.969634
6.860776
6.649205
6.363136
5.997359
5.556811
5.044822
4.464559
3.820171
3.115904
2.356803
1.548571
0.697830
-0.187839
-1.099736
-2.028784
-2.963581
-3.897820
-4.812237
-5.727641
-6.575039
-7.498694
-8.205937
-9.272922
-9.702683
7.202582
7.213566
7.263709
7.160928
7.000667
6.750974
6.425679
6.027622
5.558589
5.023811
4.426112
3.770121
3.060137
2.301304
1.499234
0.660292
-0.208490
-1.099185
-2.004101
-2.913583
-3.824409
-4.717938
-5.619996
-6.457338
-7.386903
-8.096998
-9.190995
-9.627938
7.536118
7.522324
7.500727
7.361207
7.149029
6.862110
6.498745
6.070045
5.574311
5.018602
4.405209
3.739102
3.024505
2.266511
1.470507
0.642465
-0.211252
-1.083705
-1.968569
-2.857447
-3.749602
-4.627174
-5.520626
-6.352163
-7.289148
-8.002385
-9.119845
-9.561901
7.878281
7.839652
7.744039
7.568119
7.304388
6.981415
6.581370
6.123687
5.602927
5.027932
4.400294
3.725248
3.006796
2.249863
1.459474
0.641091
-0.199682
-1.056838
-1.925398
-2.798225
-3.676558
-4.542590
-5.430616
-6.258354
-7.202986
-7.918761
-9.057090
-9.502301
8.224195
8.160455
7.990261
7.778509
7.464259
7.106676
6.671560
6.186675
5.642577
5.049888
4.409328
3.726327
3.004549
2.248661
1.463241
0.653174
-0.176721
-1.021351
-1.876879
-2.737139
-3.605127
-4.462847
-5.348034
-6.173522
-7.126062
-7.843545
-9.000807
-9.447191
8.569359
8.480220
8.236348
7.989721
7.626504
7.236060
6.767609
6.257369
5.691560
5.082661
4.430334
3.740171
3.015389
2.260345
1.479106
0.675948
-0.145049
-0.979622
-1.825000
-2.675712
-3.536229
-4.387951
-5.272020
-6.095969
-7.056443
-7.774595
-8.949366
-9.394932
8.909362
8.794772
8.479169
8.199137
7.788841
7.367606
6.867651
6.333975
5.748048
5.124342
4.461280
3.764599
3.037005
2.282491
1.504601
0.707017
-0.106870
-0.933537
-1.771081
-2.614557
-3.469776
-4.317206
-5.201411
-6.024143
-6.992470
-7.710106
-8.901312
-9.344018
9.240030
9.100595
8.715793
8.404466
7.949167
7.499489
6.969931
6.414758
5.810268
5.173066
4.500193
3.797527
3.067205
2.312865
1.537509
0.744286
-0.064058
-0.884609
-1.716238
-2.554293
-3.405812
-4.250085
-5.135213
-5.956668
-6.932702
-7.648498
-8.855352
-9.293041
9.557419
9.394727
8.943513
8.603592
8.105531
7.629930
7.072749
6.498007
5.876470
5.227007
4.545157
3.836958
3.103950
2.349421
1.575874
0.785957
-0.018149
-0.834015
-1.661191
-2.495165
-3.344158
-4.185962
-5.072520
-5.892333
-6.875907
-7.588376
-8.810317
-9.240733
9.858051
9.674704
9.160052
8.794612
8.256258
7.757270
7.174545
6.582095
5.945001
5.284428
4.594369
3.881039
3.145381
2.390353
1.617995
0.830517
0.029614
-0.782686
-1.606520
-2.437333
-3.284583
-4.124238
-5.012478
-5.830042
-6.820960
-7.528482
-8.765080
-9.185891
10.139176
9.938376
9.363661
8.975765
8.399943
7.879982
7.273890
6.665516
6.014301
5.343712
4.646167
3.928094
3.189838
2.434080
1.662434
0.876733
0.078250
-0.731282
-1.552535
-2.380790
-3.226763
-4.064281
-4.954282
-5.768763
-6.766811
-7.467634
-8.718570
-9.127327
10.398968
10.183804
9.553160
9.145508
8.535418
7.996725
7.369479
6.746885
6.082933
5.403368
4.699026
3.976605
3.235852
2.479231
1.707963
0.923574
0.126973
-0.680329
-1.499478
-2.325459
-3.170368
-4.005501
-4.897190
-5.707557
-6.712510
-7.404744
-8.669777
-9.063947
10.636591
10.409279
9.727780
9.302594
8.661699
8.106356
7.460145
6.824958
6.149593
5.462053
4.751589
4.025235
3.282151
2.524640
1.753569
0.970217
0.175185
-0.630167
-1.447445
-2.271172
-3.115031
-3.947304
-4.840483
-5.645531
-6.657140
-7.338780
-8.617716
-8.994658
10.851935
10.613596
9.887020
9.446126
8.777968
8.207938
7.544869
6.898652
6.213124
5.518587
4.802672
4.072833
3.327656
2.569337
1.798428
1.016023
0.222438
-0.581016
-1.396427
-2.217711
-3.060339
-3.889076
-4.783456
-5.581799
-6.599828
-7.268717
-8.561403
-8.918406
11.045208
10.796084
10.030551
9.575528
8.883562
8.300714
7.622763
6.967022
6.272516
5.571931
4.851238
4.118403
3.371442
2.612505
1.841865
1.060477
0.268419
-0.532997
-1.346371
-2.164805
-3.005887
-3.830214
-4.725439
-5.515518
-6.539745
-7.193603
-8.499846
-8.834240
11.216815
10.956633
10.158177
9.690510
8.977952
8.384099
7.693105
7.029241
6.326922
5.621185
4.896406
4.161100
3.412742
2.653484
1.883349
1.103205
0.312911
-0.486143
-1.297139
-2.112131
-2.951238
-3.770091
-4.665759
-5.445881
-6.476009
-7.112545
-8.432028
-8.741235
11.367222
11.095605
10.269828
9.791001
9.060780
8.457600
7.755325
7.084622
6.375597
5.665587
4.937425
4.200214
3.450914
2.691730
1.922461
1.143934
0.355792
-0.440414
-1.248545
-2.059349
-2.895921
-3.708092
-4.603748
-5.372088
-6.407768
-7.024681
-8.356931
-8.638551
11.496946
11.213667
10.365602
9.877010
9.131885
8.520812
7.808968
7.132572
6.417922
5.704479
4.973648
4.235140
3.485429
2.726805
1.958881
1.182475
0.397010
-0.395707
-1.200361
-2.006056
-2.839469
-3.643595
-4.538704
-5.293388
-6.334139
-6.929194
-8.273585
-8.525261
11.606650
11.311578
10.445858
9.948553
9.191240
8.573431
7.853658
7.172588
6.453365
5.737296
5.004536
4.265369
3.515845
2.758371
1.992378
1.218723
0.436590
-0.351856
-1.152303
-1.951827
-2.781358
-3.575954
-4.469925
-5.208982
-6.254306
-6.825170
-8.181157
-8.400355
11.697254
11.389995
10.511110
10.005721
9.238826
8.615211
7.889079
7.204229
6.481459
5.763532
5.029605
4.290460
3.541803
2.786144
2.022777
1.252628
0.474597
-0.308646
-1.104058
-1.896198
-2.721060
-3.504503
-4.396714
-5.118068
-6.167491
-6.711725
-8.078846
-8.262912
11.769871
11.449559
10.561846
10.048636
9.274671
8.645902
7.914958
7.227067
6.501783
5.782718
5.048431
4.310021
3.562981
2.809902
2.049958
1.284193
0.511155
-0.265828
-1.055259
-1.838668
-2.658012
-3.428549
-4.318363
-5.019832
-6.072954
-6.587929
-7.966018
-8.111933
11.825611
11.490905
10.598558
10.077355
9.298823
8.665236
7.931047
7.240675
6.513939
5.794416
5.060622
4.323706
3.579111
2.829468
2.073864
1.313483
0.546447
-0.223064
-1.005488
-1.778660
-2.591600
-3.347323
-4.234160
-4.913357
-5.970042
-6.452760
-7.842173
-7.946408
11.865456
11.514484
10.621740
10.091787
9.311321
8.672853
7.937070
7.244591
6.517522
5.798164
5.065792
4.331159
3.589947
2.844696
2.094457
1.340607
0.580699
-0.179977
-0.954269
-1.715548
-2.521164
-3.259996
-4.143419
-4.797667
-5.858170
-6.305233
-7.706954
-7.765466
11.890376
11.520451
10.631871
10.091656
9.312150
8.668286
7.932709
7.238271
6.512102
5.793460
5.063546
4.332025
3.595253
2.855458
2.111763
1.365716
0.614214
-0.136106
-0.901056
-1.648583
-2.446020
-3.165606
-4.045443
-4.671724
-5.736789
-6.144369
-7.560132
-7.568390
11.901284
11.508610
10.629374
10.076465
9.301221
8.650909
7.917595
7.221063
6.497201
5.779745
5.053466
4.325943
3.594812
2.861661
2.125849
1.389072
0.647370
-0.090856
-0.845194
-1.576886
-2.365359
-3.063084
-3.939478
-4.534390
-5.605448
-5.969158
-7.401680
-7.354664
11.898993
11.478380
10.614569
10.045411
9.278368
8.619844
7.891271
7.192145
6.472276
5.756357
5.035102
4.312489
3.588433
2.863254
2.136839
1.411003
0.680684
-0.043489
-0.785870
-1.499383
-2.278249
-2.951143
-3.824704
-4.384420
-5.463630
-5.778738
-7.231609
-7.124196
11.884170
11.428702
10.587705
9.997258
9.243357
8.573899
7.853201
7.150470
6.436705
5.722479
5.007983
4.291232
3.575896
2.860255
2.145006
1.432002
0.714815
0.006940
-0.722123
-1.414752
-2.183644
-2.828299
-3.700258
-4.220479
-5.310956
-5.572278
-7.050412
-6.876989
11.857348
11.357862
10.549054
9.930197
9.195925
8.511443
7.802769
7.094693
6.389797
5.677171
4.971518
4.261764
3.557100
2.852670
2.150741
1.452785
0.750739
0.061761
-0.652587
-1.321240
-2.080073
-2.692698
-3.564863
-4.041048
-5.146748
-5.348968
-6.858463
-6.613671
11.819043
11.263235
10.499022
9.841629
9.135819
8.430306
7.739248
7.023171
6.330646
5.619446
4.925161
4.223424
3.532229
2.840887
2.154731
1.474346
0.789629
0.122600
-0.575754
-1.216825
-1.966000
-2.542286
-3.417445
-3.844365
-4.971136
-5.107639
-6.657978
-6.333917
11.769894
11.140988
10.438259
9.728004
9.062740
8.327745
7.661674
6.933938
6.258327
5.547572
4.868943
4.175501
3.501166
2.825246
2.158137
1.498443
0.833643
0.192173
-0.488864
-1.098268
-1.838569
-2.373783
-3.255650
-3.627703
-4.782711
-4.847125
-6.448533
-6.040238
11.710764
10.985831
10.367631
9.584693
8.976347
8.200081
7.569368
6.823637
6.173221
5.458992
4.802441
4.118443
3.465051
2.806866
2.162130
1.526719
0.884462
0.272742
-0.390019
-0.962954
-1.696293
-2.184656
-3.079204
-3.389036
-4.583783
-4.565667
-6.238028
-5.728960
11.642747
10.790680
10.288586
9.404920
8.877602
8.040737
7.463816
6.686176
6.075152
5.353077
4.724007
4.050564
3.424252
2.788025
2.170808
1.564250
0.948259
0.371202
-0.272065
-0.803082
-1.531825
-1.967070
-2.881126
-3.121524
-4.367769
-4.259771
-6.017367
-5.409160
11.567717
10.544795
10.205635
9.176443
8.771380
7.838739
7.347250
6.519193
5.959369
5.229746
4.637698
3.974881
3.381020
2.768518
2.184462
1.610512
1.024380
0.487144
-0.136725
-0.619258
-1.348819
-1.722075
-2.668799
-2.826219
-4.149795
-3.927681
-5.820321
-5.061790
11.490985
10.229399
10.129706
8.880308
8.663359
7.585796
7.210472
6.324266
5.826078
5.078064
4.539353
3.888406
3.345171
2.759221
2.220774
1.684343
1.134834
0.643716
0.040419
-0.385975
-1.121170
-1.423153
-2.413628
-2.478211
-3.894121
-3.554540
-5.586175
-4.718562
11.423578
9.817357
10.072332
8.501240
8.546428
7.288368
7.049005
6.082739
5.694800
4.905753
4.447651
3.785389
3.311597
2.745099
2.262980
1.765784
1.256014
0.817521
0.229598
-0.129460
-0.886662
-1.098292
-2.167061
-2.103422
-3.681182
-3.150662
-5.466671
-4.313946
11.374743
9.286844
10.029240
8.037082
8.403822
6.913448
6.905066
5.749032
5.553076
4.671254
4.376525
3.689920
3.331176
2.786041
2.383489
1.932999
1.473052
1.097251
0.525927
0.246361
-0.537829
-0.646601
-1.799938
-1.603388
-3.335300
-2.644412
-5.172266
-3.915064
11.337130
8.626896
9.994495
7.453453
8.321207
6.342582
6.841977
5.335996
5.489251
4.385770
4.310039
3.548087
3.327263
2.789123
2.471575
2.069385
1.650564
1.350260
0.769086
0.598399
-0.270251
-0.213003
-1.570600
-1.106944
-3.238000
-2.111080
-5.329884
-3.404589
11.310896
7.770171
10.066119
6.504920
8.486519
5.472873
6.821467
4.692344
5.449726
4.095410
4.362267
3.543083
3.513465
3.009106
2.795808
2.471006
2.095387
1.902835
1.306273
1.277776
0.326386
0.566002
-0.948111
-0.271357
-2.623559
-1.288721
-4.767453
-2.762571
11.402727
6.436444
10.651408
4.871972
8.956196
4.364364
7.061922
4.008360
5.421588
3.700971
4.296614
3.386051
3.522623
3.043590
2.906865
2.659021
2.292410
2.217268
1.546876
1.703814
0.534839
1.106679
-0.910775
0.412925
-3.001259
-0.429495
-5.849711
-1.943284
11.936733
3.984665
12.018138
2.595038
9.500782
2.742684
7.137476
3.336997
5.568172
3.677400
4.645039
3.787322
4.082172
3.744443
3.645896
3.602929
3.162996
3.395380
2.490802
3.140206
1.491160
2.830406
0.025838
2.391665
-2.029930
1.606239
-4.725594
-0.298321
13.418102
0.383122
13.539504
0.158871
10.268412
1.565895
7.092931
2.709896
5.298321
3.382469
4.407651
3.711259
3.944102
3.828704
3.593771
3.819316
3.157608
3.720667
2.491559
3.530826
1.453452
3.217809
-0.175497
2.758662
-2.824468
2.165497
-7.009965
0.556193
14.721153
-2.674687
13.636039
-2.232406
9.549293
0.945861
6.945130
3.140560
5.770934
4.376205
5.375200
5.036246
5.288914
5.398566
5.233150
5.626369
5.027724
5.839155
4.484560
6.203552
3.291724
7.014713
0.917839
8.653249
-3.318655
11.040237
-9.461146
10.628808
13.063881
-4.443673
12.674667
-2.244370
8.501397
0.918883
6.124315
2.934472
5.219558
4.046887
5.018853
4.685265
4.993364
5.167061
4.787496
5.755736
4.062508
6.762435
2.387885
8.554762
-0.712442
11.335532
-5.456457
14.585954
-11.233579
16.081991
-15.384395
9.082265
