# vtk DataFile Version 2.0
cantilever_Q4P1_mix
ASCII
DATASET POLYDATA
POINTS 231 float
0.000000 0.000000 0.000000
48.000000 44.000000 0.000000
48.000000 60.000000 0.000000
0.000000 44.000000 0.000000
3.668233 3.362546 0.000000
7.161787 6.564972 0.000000
10.488982 9.614901 0.000000
13.657740 12.519595 0.000000
16.675604 15.285970 0.000000
19.549760 17.920613 0.000000
22.287051 20.429797 0.000000
24.893996 22.819496 0.000000
27.376800 25.095400 0.000000
29.741375 27.262927 0.000000
31.993352 29.327239 0.000000
34.138092 31.293251 0.000000
36.180701 33.165642 0.000000
38.126043 34.948873 0.000000
39.978750 36.647187 0.000000
41.743232 38.264629 0.000000
43.423692 39.805051 0.000000
45.024129 41.272119 0.000000
46.548356 42.669326 0.000000
48.000000 45.600000 0.000000
48.000000 47.200000 0.000000
48.000000 48.800000 0.000000
48.000000 50.400000 0.000000
48.000000 52.000000 0.000000
48.000000 53.600000 0.000000
48.000000 55.200000 0.000000
48.000000 56.800000 0.000000
48.000000 58.400000 0.000000
46.548356 59.516119 0.000000
45.024129 59.008043 0.000000
43.423692 58.474564 0.000000
41.743232 57.914411 0.000000
39.978749 57.326250 0.000000
38.126043 56.708681 0.000000
36.180701 56.060234 0.000000
34.138092 55.379364 0.000000
31.993352 54.664451 0.000000
29.741375 53.913792 0.000000
27.376800 53.125600 0.000000
24.893996 52.297999 0.000000
22.287051 51.429017 0.000000
19.549760 50.516587 0.000000
16.675604 49.558535 0.000000
13.657740 48.552580 0.000000
10.488982 47.496327 0.000000
7.161787 46.387262 0.000000
3.668233 45.222744 0.000000
0.000000 39.600000 0.000000
0.000000 35.200000 0.000000
0.000000 30.800000 0.000000
0.000000 26.400000 0.000000
0.000000 22.000000 0.000000
0.000000 17.600000 0.000000
0.000000 13.200000 0.000000
0.000000 8.800000 0.000000
0.000000 4.400000 0.000000
3.578594 7.472867 0.000000
3.554583 11.643772 0.000000
3.548483 15.831239 0.000000
3.547051 20.023025 0.000000
3.546738 24.215847 0.000000
3.546675 28.408899 0.000000
3.546774 32.602037 0.000000
3.549461 36.796068 0.000000
3.570684 40.996436 0.000000
7.048736 10.452325 0.000000
7.009560 14.408071 0.000000
6.998014 18.389395 0.000000
6.994955 22.378580 0.000000
6.994210 26.369907 0.000000
6.994059 30.361773 0.000000
6.994535 34.353932 0.000000
7.000542 38.348004 0.000000
7.036068 42.352196 0.000000
10.372383 13.305473 0.000000
10.328376 17.063360 0.000000
10.313997 20.848713 0.000000
10.309805 24.643509 0.000000
10.308688 28.441154 0.000000
10.308477 32.239600 0.000000
10.309356 36.038545 0.000000
10.317334 39.839959 0.000000
10.357665 43.652502 0.000000
13.543812 16.027677 0.000000
13.499447 19.600317 0.000000
13.484236 23.200009 0.000000
13.479527 26.809442 0.000000
13.478192 30.421999 0.000000
13.477951 34.035509 0.000000
13.479061 37.649638 0.000000
13.487708 41.266403 0.000000
13.528590 44.894282 0.000000
16.566180 18.621821 0.000000
16.523076 22.019242 0.000000
16.507992 25.442673 0.000000
16.503175 28.875633 0.000000
16.501758 32.311740 0.000000
16.501506 35.748851 0.000000
16.502694 39.186628 0.000000
16.511351 42.627026 0.000000
16.551180 46.078188 0.000000
19.445255 21.092932 0.000000
19.403919 24.323902 0.000000
19.389334 27.579710 0.000000
19.384609 30.844672 0.000000
19.383193 34.112695 0.000000
19.382941 37.381716 0.000000
19.384124 40.651406 0.000000
19.392527 43.923635 0.000000
19.430772 47.206176 0.000000
22.187432 23.446526 0.000000
22.147971 26.519116 0.000000
22.134003 29.615377 0.000000
22.129452 32.720380 0.000000
22.128075 35.828320 0.000000
22.127828 38.937228 0.000000
22.128974 42.046786 0.000000
22.137033 45.158779 0.000000
22.173564 48.280614 0.000000
24.799092 25.688094 0.000000
24.761480 28.609891 0.000000
24.748151 31.554236 0.000000
24.743798 34.506915 0.000000
24.742475 37.462399 0.000000
24.742238 40.418809 0.000000
24.743336 43.375845 0.000000
24.751030 46.335205 0.000000
24.785857 49.303946 0.000000
27.286407 27.822935 0.000000
27.250576 30.601135 0.000000
27.237874 33.400812 0.000000
27.233721 36.208426 0.000000
27.232457 39.018715 0.000000
27.232230 41.829888 0.000000
27.233278 44.641659 0.000000
27.240612 47.455645 0.000000
27.273793 50.278567 0.000000
29.655284 29.856121 0.000000
29.621157 32.497568 0.000000
29.609056 35.159468 0.000000
29.605099 37.828929 0.000000
29.603894 40.500937 0.000000
29.603677 43.173788 0.000000
29.604676 45.847210 0.000000
29.611662 48.522742 0.000000
29.643267 51.206785 0.000000
31.911359 31.792490 0.000000
31.878856 34.303697 0.000000
31.867331 36.834383 0.000000
31.863561 39.372270 0.000000
31.862414 41.912583 0.000000
31.862207 44.453699 0.000000
31.863158 46.995358 0.000000
31.869813 49.539028 0.000000
31.899914 52.090804 0.000000
34.060003 33.636652 0.000000
34.029047 36.023821 0.000000
34.018071 38.429541 0.000000
34.014481 40.842120 0.000000
34.013387 43.257009 0.000000
34.013190 45.672664 0.000000
34.014096 48.088835 0.000000
34.020434 50.506921 0.000000
34.049102 52.932728 0.000000
36.106331 35.392997 0.000000
36.076849 37.662034 0.000000
36.066395 39.948740 0.000000
36.062976 42.241978 0.000000
36.061934 44.537416 0.000000
36.061747 46.833583 0.000000
36.062609 49.130242 0.000000
36.068646 51.428725 0.000000
36.095949 53.734561 0.000000
38.055214 37.065706 0.000000
38.027136 39.222238 0.000000
38.017180 41.395597 0.000000
38.013924 43.575176 0.000000
38.012932 45.756851 0.000000
38.012753 47.939220 0.000000
38.013575 50.122058 0.000000
38.019323 52.306633 0.000000
38.045326 54.498211 0.000000
39.911294 38.658763 0.000000
39.884553 40.708146 0.000000
39.875071 42.773555 0.000000
39.871969 44.844888 0.000000
39.871025 46.918218 0.000000
39.870854 48.992208 0.000000
39.871637 51.066645 0.000000
39.877112 53.142736 0.000000
39.901877 55.225497 0.000000
41.678988 40.175959 0.000000
41.653521 42.123296 0.000000
41.644490 44.085896 0.000000
41.641537 46.054138 0.000000
41.640637 48.024281 0.000000
41.640475 49.995053 0.000000
41.641220 51.966251 0.000000
41.646434 53.939025 0.000000
41.670020 55.918150 0.000000
43.362507 41.620908 0.000000
43.338253 43.471059 0.000000
43.329652 45.335745 0.000000
43.326839 47.205805 0.000000
43.325982 49.077675 0.000000
43.325828 50.950145 0.000000
43.326537 52.823020 0.000000
43.331503 54.697395 0.000000
43.353966 56.577819 0.000000
44.966849 42.997864 0.000000
44.944523 44.756048 0.000000
44.936702 46.527694 0.000000
44.934146 48.304227 0.000000
44.933364 50.082402 0.000000
44.933225 51.861123 0.000000
44.933892 53.640221 0.000000
44.938483 55.420702 0.000000
44.959236 57.206767 0.000000
46.503133 44.316138 0.000000
46.487577 45.990401 0.000000
46.482217 47.674115 0.000000
46.480442 49.361155 0.000000
46.479889 51.049323 0.000000
46.479798 52.737880 0.000000
46.480327 54.426721 0.000000
46.483688 56.116560 0.000000
46.498362 57.810301 0.000000
POLYGONS 200 1000
4 0 4 60 59
4 59 60 61 58
4 58 61 62 57
4 57 62 63 56
4 56 63 64 55
4 55 64 65 54
4 54 65 66 53
4 53 66 67 52
4 52 67 68 51
4 51 68 50 3
4 4 5 69 60
4 60 69 70 61
4 61 70 71 62
4 62 71 72 63
4 63 72 73 64
4 64 73 74 65
4 65 74 75 66
4 66 75 76 67
4 67 76 77 68
4 68 77 49 50
4 5 6 78 69
4 69 78 79 70
4 70 79 80 71
4 71 80 81 72
4 72 81 82 73
4 73 82 83 74
4 74 83 84 75
4 75 84 85 76
4 76 85 86 77
4 77 86 48 49
4 6 7 87 78
4 78 87 88 79
4 79 88 89 80
4 80 89 90 81
4 81 90 91 82
4 82 91 92 83
4 83 92 93 84
4 84 93 94 85
4 85 94 95 86
4 86 95 47 48
4 7 8 96 87
4 87 96 97 88
4 88 97 98 89
4 89 98 99 90
4 90 99 100 91
4 91 100 101 92
4 92 101 102 93
4 93 102 103 94
4 94 103 104 95
4 95 104 46 47
4 8 9 105 96
4 96 105 106 97
4 97 106 107 98
4 98 107 108 99
4 99 108 109 100
4 100 109 110 101
4 101 110 111 102
4 102 111 112 103
4 103 112 113 104
4 104 113 45 46
4 9 10 114 105
4 105 114 115 106
4 106 115 116 107
4 107 116 117 108
4 108 117 118 109
4 109 118 119 110
4 110 119 120 111
4 111 120 121 112
4 112 121 122 113
4 113 122 44 45
4 10 11 123 114
4 114 123 124 115
4 115 124 125 116
4 116 125 126 117
4 117 126 127 118
4 118 127 128 119
4 119 128 129 120
4 120 129 130 121
4 121 130 131 122
4 122 131 43 44
4 11 12 132 123
4 123 132 133 124
4 124 133 134 125
4 125 134 135 126
4 126 135 136 127
4 127 136 137 128
4 128 137 138 129
4 129 138 139 130
4 130 139 140 131
4 131 140 42 43
4 12 13 141 132
4 132 141 142 133
4 133 142 143 134
4 134 143 144 135
4 135 144 145 136
4 136 145 146 137
4 137 146 147 138
4 138 147 148 139
4 139 148 149 140
4 140 149 41 42
4 13 14 150 141
4 141 150 151 142
4 142 151 152 143
4 143 152 153 144
4 144 153 154 145
4 145 154 155 146
4 146 155 156 147
4 147 156 157 148
4 148 157 158 149
4 149 158 40 41
4 14 15 159 150
4 150 159 160 151
4 151 160 161 152
4 152 161 162 153
4 153 162 163 154
4 154 163 164 155
4 155 164 165 156
4 156 165 166 157
4 157 166 167 158
4 158 167 39 40
4 15 16 168 159
4 159 168 169 160
4 160 169 170 161
4 161 170 171 162
4 162 171 172 163
4 163 172 173 164
4 164 173 174 165
4 165 174 175 166
4 166 175 176 167
4 167 176 38 39
4 16 17 177 168
4 168 177 178 169
4 169 178 179 170
4 170 179 180 171
4 171 180 181 172
4 172 181 182 173
4 173 182 183 174
4 174 183 184 175
4 175 184 185 176
4 176 185 37 38
4 17 18 186 177
4 177 186 187 178
4 178 187 188 179
4 179 188 189 180
4 180 189 190 181
4 181 190 191 182
4 182 191 192 183
4 183 192 193 184
4 184 193 194 185
4 185 194 36 37
4 18 19 195 186
4 186 195 196 187
4 187 196 197 188
4 188 197 198 189
4 189 198 199 190
4 190 199 200 191
4 191 200 201 192
4 192 201 202 193
4 193 202 203 194
4 194 203 35 36
4 19 20 204 195
4 195 204 205 196
4 196 205 206 197
4 197 206 207 198
4 198 207 208 199
4 199 208 209 200
4 200 209 210 201
4 201 210 211 202
4 202 211 212 203
4 203 212 34 35
4 20 21 213 204
4 204 213 214 205
4 205 214 215 206
4 206 215 216 207
4 207 216 217 208
4 208 217 218 209
4 209 218 219 210
4 210 219 220 211
4 211 220 221 212
4 212 221 33 34
4 21 22 222 213
4 213 222 223 214
4 214 223 224 215
4 215 224 225 216
4 216 225 226 217
4 217 226 227 218
4 218 227 228 219
4 219 228 229 220
4 220 229 230 221
4 221 230 32 33
4 22 1 23 222
4 222 23 24 223
4 223 24 25 224
4 224 25 26 225
4 225 26 27 226
4 226 27 28 227
4 227 28 29 228
4 228 29 30 229
4 229 30 31 230
4 230 31 2 32
POINT_DATA 231
VECTORS U float
-0.027163 0.019852 0.000000
-5.409057 25.247684 0.000000
-19.565573 27.213164 0.000000
-0.027163 0.019852 0.000000
0.053884 0.866195 0.000000
0.021393 1.605197 0.000000
0.192511 2.227649 0.000000
0.377594 2.847225 0.000000
0.688400 3.530845 0.000000
0.961191 4.361177 0.000000
1.206094 5.342202 0.000000
1.340820 6.484335 0.000000
1.365225 7.758727 0.000000
1.259802 9.148532 0.000000
1.031117 10.626977 0.000000
0.684811 12.176200 0.000000
0.229531 13.778070 0.000000
-0.324831 15.418136 0.000000
-0.971109 17.082310 0.000000
-1.700979 18.757684 0.000000
-2.510814 20.429283 0.000000
-3.394794 22.083772 0.000000
-4.362013 23.692603 0.000000
-6.655100 25.318113 0.000000
-7.820779 25.458659 0.000000
-8.984534 25.632187 0.000000
-10.179950 25.838594 0.000000
-11.431297 26.068393 0.000000
-12.759308 26.314526 0.000000
-14.185110 26.569153 0.000000
-15.742095 26.824462 0.000000
-17.473664 27.067787 0.000000
-18.798785 25.137964 0.000000
-18.013417 23.325529 0.000000
-17.231280 21.601522 0.000000
-16.444573 19.924826 0.000000
-15.638833 18.271916 0.000000
-14.804550 16.637276 0.000000
-13.934534 15.023754 0.000000
-13.026551 13.439922 0.000000
-12.080587 11.897809 0.000000
-11.101254 10.409991 0.000000
-10.092185 8.990290 0.000000
-9.062180 7.649906 0.000000
-8.013077 6.402866 0.000000
-6.957968 5.254926 0.000000
-5.886243 4.225493 0.000000
-4.826762 3.300415 0.000000
-3.714406 2.539326 0.000000
-2.668192 1.803422 0.000000
-1.293999 1.463887 0.000000
0.027163 -0.019852 0.000000
-0.027163 0.019852 0.000000
0.027163 -0.019852 0.000000
-0.027163 0.019852 0.000000
0.027163 -0.019852 0.000000
-0.027163 0.019852 0.000000
0.027163 -0.019852 0.000000
-0.027163 0.019852 0.000000
0.027163 -0.019852 0.000000
-0.016096 0.825400 0.000000
0.076270 0.743310 0.000000
0.055814 0.647552 0.000000
0.100498 0.416398 0.000000
0.082698 0.258230 0.000000
0.059647 0.003924 0.000000
0.045671 -0.063016 0.000000
-0.106369 -0.128476 0.000000
-0.159005 0.225761 0.000000
0.145783 1.508121 0.000000
0.197177 1.365705 0.000000
0.292924 1.097404 0.000000
0.297429 0.847864 0.000000
0.264091 0.525216 0.000000
0.184720 0.352861 0.000000
-0.043508 0.244086 0.000000
-0.309229 0.451941 0.000000
-1.159165 1.139720 0.000000
0.322195 2.112373 0.000000
0.491140 1.880693 0.000000
0.543538 1.620976 0.000000
0.528766 1.297061 0.000000
0.411926 1.073166 0.000000
0.140512 0.911284 0.000000
-0.246051 0.975082 0.000000
-1.006098 1.326444 0.000000
-2.171478 1.817743 0.000000
0.636416 2.699693 0.000000
0.760041 2.482669 0.000000
0.789706 2.200325 0.000000
0.674438 1.969385 0.000000
0.395500 1.779461 0.000000
-0.040315 1.745958 0.000000
-0.760493 1.893992 0.000000
-1.774385 2.194020 0.000000
-3.127903 2.684632 0.000000
0.907032 3.391867 0.000000
1.003879 3.178214 0.000000
0.923896 2.972535 0.000000
0.668818 2.784265 0.000000
0.231658 2.698213 0.000000
-0.449490 2.728746 0.000000
-1.376912 2.887612 0.000000
-2.594600 3.196220 0.000000
-4.101839 3.625319 0.000000
1.145134 4.217557 0.000000
1.126655 4.053276 0.000000
0.919804 3.888144 0.000000
0.513675 3.783217 0.000000
-0.117889 3.751716 0.000000
-0.974914 3.818555 0.000000
-2.087156 3.998251 0.000000
-3.451277 4.281041 0.000000
-5.068811 4.694732 0.000000
1.265538 5.213098 0.000000
1.123415 5.077112 0.000000
0.769751 4.972914 0.000000
0.198375 4.913618 0.000000
-0.589145 4.925232 0.000000
-1.608676 5.019861 0.000000
-2.855703 5.199269 0.000000
-4.334017 5.479011 0.000000
-6.048482 5.866229 0.000000
1.270132 6.358482 0.000000
0.981050 6.257253 0.000000
0.476998 6.186954 0.000000
-0.238905 6.166950 0.000000
-1.171808 6.207596 0.000000
-2.315742 6.316389 0.000000
-3.672855 6.503666 0.000000
-5.241733 6.771840 0.000000
-7.028424 7.143451 0.000000
1.142630 7.641783 0.000000
0.708089 7.560164 0.000000
0.064627 7.519286 0.000000
-0.786154 7.524953 0.000000
-1.836586 7.585461 0.000000
-3.085309 7.708850 0.000000
-4.527719 7.897020 0.000000
-6.165143 8.160068 0.000000
-8.010170 8.512060 0.000000
0.891079 9.034981 0.000000
0.318179 8.970069 0.000000
-0.455284 8.948452 0.000000
-1.420444 8.973740 0.000000
-2.572182 9.051513 0.000000
-3.902995 9.184102 0.000000
-5.410957 9.375979 0.000000
-7.099906 9.630011 0.000000
-8.984348 9.963778 0.000000
0.523693 10.518166 0.000000
-0.177858 10.464797 0.000000
-1.065387 10.459060 0.000000
-2.130974 10.501173 0.000000
-3.364096 10.592641 0.000000
-4.759044 10.735325 0.000000
-6.314408 10.927394 0.000000
-8.036920 11.172715 0.000000
-9.946750 11.484794 0.000000
0.049576 12.071026 0.000000
-0.766907 12.028072 0.000000
-1.756074 12.036565 0.000000
-2.904706 12.093874 0.000000
-4.202702 12.199571 0.000000
-5.643370 12.349938 0.000000
-7.228269 12.541714 0.000000
-8.969316 12.774280 0.000000
-10.889183 13.062567 0.000000
-0.520588 13.677429 0.000000
-1.440685 13.644666 0.000000
-2.516239 13.667492 0.000000
-3.732808 13.741095 0.000000
-5.077494 13.860393 0.000000
-6.545536 14.018170 0.000000
-8.143306 14.205749 0.000000
-9.887716 14.422362 0.000000
-11.806389 14.682762 0.000000
-1.179472 15.322617 0.000000
-2.189780 15.301274 0.000000
-3.338329 15.340257 0.000000
-4.605431 15.431639 0.000000
-5.977891 15.565429 0.000000
-7.454689 15.727934 0.000000
-9.048586 15.907888 0.000000
-10.784522 16.103167 0.000000
-12.692568 16.332602 0.000000
-1.918663 16.993498 0.000000
-3.008129 16.985626 0.000000
-4.213849 17.044189 0.000000
-5.512489 17.155918 0.000000
-6.892174 17.303701 0.000000
-8.358361 17.468223 0.000000
-9.934663 17.635040 0.000000
-11.652601 17.805413 0.000000
-13.545148 18.001492 0.000000
-2.733508 18.676827 0.000000
-3.888932 18.686994 0.000000
-5.134054 18.769257 0.000000
-6.442003 18.903949 0.000000
-7.805822 19.064134 0.000000
-9.245807 19.225069 0.000000
-10.794733 19.376635 0.000000
-12.488603 19.521419 0.000000
-14.363472 19.684757 0.000000
-3.618649 20.360786 0.000000
-4.826218 20.393496 0.000000
-6.087429 20.506565 0.000000
-7.375639 20.663788 0.000000
-8.706176 20.828803 0.000000
-10.112192 20.985412 0.000000
-11.628496 21.125907 0.000000
-13.293745 21.251878 0.000000
-15.150253 21.387702 0.000000
-4.574077 22.029689 0.000000
-5.811390 22.099615 0.000000
-7.049726 22.244785 0.000000
-8.297926 22.411756 0.000000
-9.592139 22.580202 0.000000
-10.964532 22.741087 0.000000
-12.447068 22.887280 0.000000
-14.076819 23.012915 0.000000
-15.911370 23.132008 0.000000
-5.598886 23.685606 0.000000
-6.813853 23.799947 0.000000
-8.005011 23.957213 0.000000
-9.218181 24.131689 0.000000
-10.484308 24.316646 0.000000
-11.829737 24.504282 0.000000
-13.280416 24.685317 0.000000
-14.868981 24.849300 0.000000
-16.658260 24.981235 0.000000
CELL_DATA 200
SCALARS P float 1
LOOKUP_TABLE default
4.926601
7.309200
4.644783
9.116509
4.289969
6.202217
0.113086
-3.058007
-8.387354
-21.700814
5.795171
4.965110
7.851753
4.528782
6.061864
1.555542
-0.450718
-4.327881
-11.756779
-9.565955
5.399754
7.143521
5.193223
6.305261
2.909879
1.620554
-1.588184
-6.145442
-6.913219
-10.815072
6.866210
6.213260
6.886914
4.369211
3.432511
0.671531
-2.420416
-4.166911
-7.704657
-9.353413
7.639098
7.810597
6.007683
5.169793
2.770845
0.448210
-1.599019
-4.647811
-6.584852
-9.480985
9.133830
7.868977
6.947488
4.846560
2.915334
0.815455
-1.827440
-3.900491
-6.700827
-9.111345
9.986954
8.835950
6.957796
5.194365
3.129734
0.773998
-1.336140
-3.964876
-6.298015
-9.032719
10.865134
9.119767
7.386091
5.377471
3.205412
1.107108
-1.349752
-3.610718
-6.216465
-8.784208
11.315774
9.530144
7.569001
5.503985
3.436154
1.122416
-1.068375
-3.533301
-5.933646
-8.553483
11.626643
9.695216
7.688523
5.654644
3.450437
1.323114
-1.011892
-3.274813
-5.722187
-8.202291
11.734155
9.762704
7.760425
5.637815
3.563864
1.337172
-0.813543
-3.107794
-5.388165
-7.793901
11.720569
9.747037
7.687379
5.655516
3.512769
1.449964
-0.714318
-2.828340
-5.042978
-7.285709
11.606953
9.600831
7.599981
5.517752
3.518078
1.456095
-0.517561
-2.558738
-4.599562
-6.721772
11.379645
9.399484
7.357233
5.394415
3.401040
1.540806
-0.339597
-2.178772
-4.110405
-6.107024
11.056174
9.038192
7.084193
5.118026
3.336490
1.594954
-0.032497
-1.725074
-3.520778
-5.489413
10.568474
8.593671
6.606415
4.856490
3.208429
1.793535
0.399746
-1.087431
-2.835205
-4.879326
9.926300
7.869291
6.089235
4.448815
3.227918
2.184798
1.108750
-0.217482
-1.954473
-4.287714
8.915625
7.023922
5.237406
4.176477
3.538435
2.941202
2.190918
1.061007
-0.767976
-3.568539
7.633560
5.421269
4.498891
4.387222
4.332074
4.196484
3.788699
2.961099
1.214017
-2.515723
4.645944
3.957272
4.687215
5.294604
5.790802
6.059251
6.083236
5.713531
4.844144
1.130014
