# vtk DataFile Version 2.0
patchtest_tri3_mix
ASCII
DATASET POLYDATA
POINTS 561 float
0.000000 0.000000 0.000000
48.000000 44.000000 0.000000
48.000000 60.000000 0.000000
0.000000 44.000000 0.000000
1.500000 1.375000 0.000000
3.000000 2.750000 0.000000
4.500000 4.125000 0.000000
6.000000 5.500000 0.000000
7.500000 6.875000 0.000000
9.000000 8.250000 0.000000
10.500000 9.625000 0.000000
12.000000 11.000000 0.000000
13.500000 12.375000 0.000000
15.000000 13.750000 0.000000
16.500000 15.125000 0.000000
18.000000 16.500000 0.000000
19.500000 17.875000 0.000000
21.000000 19.250000 0.000000
22.500000 20.625000 0.000000
24.000000 22.000000 0.000000
25.500000 23.375000 0.000000
27.000000 24.750000 0.000000
28.500000 26.125000 0.000000
30.000000 27.500000 0.000000
31.500000 28.875000 0.000000
33.000000 30.250000 0.000000
34.500000 31.625000 0.000000
36.000000 33.000000 0.000000
37.500000 34.375000 0.000000
39.000000 35.750000 0.000000
40.500000 37.125000 0.000000
42.000000 38.500000 0.000000
43.500000 39.875000 0.000000
45.000000 41.250000 0.000000
46.500000 42.625000 0.000000
48.000000 45.000000 0.000000
48.000000 46.000000 0.000000
48.000000 47.000000 0.000000
48.000000 48.000000 0.000000
48.000000 49.000000 0.000000
48.000000 50.000000 0.000000
48.000000 51.000000 0.000000
48.000000 52.000000 0.000000
48.000000 53.000000 0.000000
48.000000 54.000000 0.000000
48.000000 55.000000 0.000000
48.000000 56.000000 0.000000
48.000000 57.000000 0.000000
48.000000 58.000000 0.000000
48.000000 59.000000 0.000000
46.500000 59.500000 0.000000
45.000000 59.000000 0.000000
43.500000 58.500000 0.000000
42.000000 58.000000 0.000000
40.500000 57.500000 0.000000
39.000000 57.000000 0.000000
37.500000 56.500000 0.000000
36.000000 56.000000 0.000000
34.500000 55.500000 0.000000
33.000000 55.000000 0.000000
31.500000 54.500000 0.000000
30.000000 54.000000 0.000000
28.500000 53.500000 0.000000
27.000000 53.000000 0.000000
25.500000 52.500000 0.000000
24.000000 52.000000 0.000000
22.500000 51.500000 0.000000
21.000000 51.000000 0.000000
19.500000 50.500000 0.000000
18.000000 50.000000 0.000000
16.500000 49.500000 0.000000
15.000000 49.000000 0.000000
13.500000 48.500000 0.000000
12.000000 48.000000 0.000000
10.500000 47.500000 0.000000
9.000000 47.000000 0.000000
7.500000 46.500000 0.000000
6.000000 46.000000 0.000000
4.500000 45.500000 0.000000
3.000000 45.000000 0.000000
1.500000 44.500000 0.000000
0.000000 41.250000 0.000000
0.000000 38.500000 0.000000
0.000000 35.750000 0.000000
0.000000 33.000000 0.000000
0.000000 30.250000 0.000000
0.000000 27.500000 0.000000
0.000000 24.750000 0.000000
0.000000 22.000000 0.000000
0.000000 19.250000 0.000000
0.000000 16.500000 0.000000
0.000000 13.750000 0.000000
0.000000 11.000000 0.000000
0.000000 8.250000 0.000000
0.000000 5.500000 0.000000
0.000000 2.750000 0.000000
1.500000 4.070313 0.000000
1.500000 6.765625 0.000000
1.500000 9.460938 0.000000
1.500000 12.156250 0.000000
1.500000 14.851563 0.000000
1.500000 17.546875 0.000000
1.500000 20.242188 0.000000
1.500000 22.937500 0.000000
1.500000 25.632813 0.000000
1.500000 28.328125 0.000000
1.500000 31.023437 0.000000
1.500000 33.718750 0.000000
1.500000 36.414062 0.000000
1.500000 39.109375 0.000000
1.500000 41.804687 0.000000
3.000000 5.390625 0.000000
3.000000 8.031250 0.000000
3.000000 10.671875 0.000000
3.000000 13.312500 0.000000
3.000000 15.953125 0.000000
3.000000 18.593750 0.000000
3.000000 21.234375 0.000000
3.000000 23.875000 0.000000
3.000000 26.515625 0.000000
3.000000 29.156250 0.000000
3.000000 31.796875 0.000000
3.000000 34.437500 0.000000
3.000000 37.078125 0.000000
3.000000 39.718750 0.000000
3.000000 42.359375 0.000000
4.500000 6.710937 0.000000
4.500000 9.296875 0.000000
4.500000 11.882813 0.000000
4.500000 14.468750 0.000000
4.500000 17.054688 0.000000
4.500000 19.640625 0.000000
4.500000 22.226563 0.000000
4.500000 24.812500 0.000000
4.500000 27.398438 0.000000
4.500000 29.984375 0.000000
4.500000 32.570312 0.000000
4.500000 35.156250 0.000000
4.500000 37.742187 0.000000
4.500000 40.328125 0.000000
4.500000 42.914062 0.000000
6.000000 8.031250 0.000000
6.000000 10.562500 0.000000
6.000000 13.093750 0.000000
6.000000 15.625000 0.000000
6.000000 18.156250 0.000000
6.000000 20.687500 0.000000
6.000000 23.218750 0.000000
6.000000 25.750000 0.000000
6.000000 28.281250 0.000000
6.000000 30.812500 0.000000
6.000000 33.343750 0.000000
6.000000 35.875000 0.000000
6.000000 38.406250 0.000000
6.000000 40.937500 0.000000
6.000000 43.468750 0.000000
7.500000 9.351562 0.000000
7.500000 11.828125 0.000000
7.500000 14.304687 0.000000
7.500000 16.781250 0.000000
7.500000 19.257813 0.000000
7.500000 21.734375 0.000000
7.500000 24.210938 0.000000
7.500000 26.687500 0.000000
7.500000 29.164063 0.000000
7.500000 31.640625 0.000000
7.500000 34.117187 0.000000
7.500000 36.593750 0.000000
7.500000 39.070312 0.000000
7.500000 41.546875 0.000000
7.500000 44.023438 0.000000
9.000000 10.671875 0.000000
9.000000 13.093750 0.000000
9.000000 15.515625 0.000000
9.000000 17.937500 0.000000
9.000000 20.359375 0.000000
9.000000 22.781250 0.000000
9.000000 25.203125 0.000000
9.000000 27.625000 0.000000
9.000000 30.046875 0.000000
9.000000 32.468750 0.000000
9.000000 34.890625 0.000000
9.000000 37.312500 0.000000
9.000000 39.734375 0.000000
9.000000 42.156250 0.000000
9.000000 44.578125 0.000000
10.500000 11.992187 0.000000
10.500000 14.359375 0.000000
10.500000 16.726562 0.000000
10.500000 19.093750 0.000000
10.500000 21.460937 0.000000
10.500000 23.828125 0.000000
10.500000 26.195313 0.000000
10.500000 28.562500 0.000000
10.500000 30.929688 0.000000
10.500000 33.296875 0.000000
10.500000 35.664062 0.000000
10.500000 38.031250 0.000000
10.500000 40.398437 0.000000
10.500000 42.765625 0.000000
10.500000 45.132813 0.000000
12.000000 13.312500 0.000000
12.000000 15.625000 0.000000
12.000000 17.937500 0.000000
12.000000 20.250000 0.000000
12.000000 22.562500 0.000000
12.000000 24.875000 0.000000
12.000000 27.187500 0.000000
12.000000 29.500000 0.000000
12.000000 31.812500 0.000000
12.000000 34.125000 0.000000
12.000000 36.437500 0.000000
12.000000 38.750000 0.000000
12.000000 41.062500 0.000000
12.000000 43.375000 0.000000
12.000000 45.687500 0.000000
13.500000 14.632812 0.000000
13.500000 16.890625 0.000000
13.500000 19.148437 0.000000
13.500000 21.406250 0.000000
13.500000 23.664062 0.000000
13.500000 25.921875 0.000000
13.500000 28.179688 0.000000
13.500000 30.437500 0.000000
13.500000 32.695313 0.000000
13.500000 34.953125 0.000000
13.500000 37.210937 0.000000
13.500000 39.468750 0.000000
13.500000 41.726562 0.000000
13.500000 43.984375 0.000000
13.500000 46.242188 0.000000
15.000000 15.953125 0.000000
15.000000 18.156250 0.000000
15.000000 20.359375 0.000000
15.000000 22.562500 0.000000
15.000000 24.765625 0.000000
15.000000 26.968750 0.000000
15.000000 29.171875 0.000000
15.000000 31.375000 0.000000
15.000000 33.578125 0.000000
15.000000 35.781250 0.000000
15.000000 37.984375 0.000000
15.000000 40.187500 0.000000
15.000000 42.390625 0.000000
15.000000 44.593750 0.000000
15.000000 46.796875 0.000000
16.500000 17.273437 0.000000
16.500000 19.421875 0.000000
16.500000 21.570312 0.000000
16.500000 23.718750 0.000000
16.500000 25.867187 0.000000
16.500000 28.015625 0.000000
16.500000 30.164062 0.000000
16.500000 32.312500 0.000000
16.500000 34.460937 0.000000
16.500000 36.609375 0.000000
16.500000 38.757812 0.000000
16.500000 40.906250 0.000000
16.500000 43.054687 0.000000
16.500000 45.203125 0.000000
16.500000 47.351563 0.000000
18.000000 18.593750 0.000000
18.000000 20.687500 0.000000
18.000000 22.781250 0.000000
18.000000 24.875000 0.000000
18.000000 26.968750 0.000000
18.000000 29.062500 0.000000
18.000000 31.156250 0.000000
18.000000 33.250000 0.000000
18.000000 35.343750 0.000000
18.000000 37.437500 0.000000
18.000000 39.531250 0.000000
18.000000 41.625000 0.000000
18.000000 43.718750 0.000000
18.000000 45.812500 0.000000
18.000000 47.906250 0.000000
19.500000 19.914062 0.000000
19.500000 21.953125 0.000000
19.500000 23.992187 0.000000
19.500000 26.031250 0.000000
19.500000 28.070312 0.000000
19.500000 30.109375 0.000000
19.500000 32.148437 0.000000
19.500000 34.187500 0.000000
19.500000 36.226562 0.000000
19.500000 38.265625 0.000000
19.500000 40.304687 0.000000
19.500000 42.343750 0.000000
19.500000 44.382812 0.000000
19.500000 46.421875 0.000000
19.500000 48.460938 0.000000
21.000000 21.234375 0.000000
21.000000 23.218750 0.000000
21.000000 25.203125 0.000000
21.000000 27.187500 0.000000
21.000000 29.171875 0.000000
21.000000 31.156250 0.000000
21.000000 33.140625 0.000000
21.000000 35.125000 0.000000
21.000000 37.109375 0.000000
21.000000 39.093750 0.000000
21.000000 41.078125 0.000000
21.000000 43.062500 0.000000
21.000000 45.046875 0.000000
21.000000 47.031250 0.000000
21.000000 49.015625 0.000000
22.500000 22.554687 0.000000
22.500000 24.484375 0.000000
22.500000 26.414062 0.000000
22.500000 28.343750 0.000000
22.500000 30.273437 0.000000
22.500000 32.203125 0.000000
22.500000 34.132812 0.000000
22.500000 36.062500 0.000000
22.500000 37.992187 0.000000
22.500000 39.921875 0.000000
22.500000 41.851562 0.000000
22.500000 43.781250 0.000000
22.500000 45.710937 0.000000
22.500000 47.640625 0.000000
22.500000 49.570313 0.000000
24.000000 23.875000 0.000000
24.000000 25.750000 0.000000
24.000000 27.625000 0.000000
24.000000 29.500000 0.000000
24.000000 31.375000 0.000000
24.000000 33.250000 0.000000
24.000000 35.125000 0.000000
24.000000 37.000000 0.000000
24.000000 38.875000 0.000000
24.000000 40.750000 0.000000
24.000000 42.625000 0.000000
24.000000 44.500000 0.000000
24.000000 46.375000 0.000000
24.000000 48.250000 0.000000
24.000000 50.125000 0.000000
25.500000 25.195312 0.000000
25.500000 27.015625 0.000000
25.500000 28.835937 0.000000
25.500000 30.656250 0.000000
25.500000 32.476562 0.000000
25.500000 34.296875 0.000000
25.500000 36.117187 0.000000
25.500000 37.937500 0.000000
25.500000 39.757812 0.000000
25.500000 41.578125 0.000000
[...]
POINT_DATA 561
SCALARS P float 1
LOOKUP_TABLE default
6.604863
4.013266
-0.709211
-45.162697
5.697247
5.442472
5.154537
5.016017
5.065527
5.321258
5.762942
6.358818
7.062871
7.832317
8.621642
9.392075
10.110829
10.754258
11.307491
11.764499
12.125812
12.396459
12.584362
12.698458
12.746957
12.736130
12.669044
12.544200
12.354097
12.083671
11.707950
11.187086
10.451741
9.423211
7.825932
0.672904
4.390669
3.716255
5.471986
5.712219
6.298344
7.128657
6.718764
8.245093
6.682698
9.192307
6.182812
9.979037
5.074060
10.126805
-7.224968
-5.071544
-6.042412
-5.813068
-6.302203
-6.664146
-7.170651
-7.659612
-8.146398
-8.592203
-8.992778
-9.340452
-9.636588
-9.883598
-10.086410
-10.250528
-10.381992
-10.486969
-10.571663
-10.642407
-10.706019
-10.767474
-10.838088
-10.913037
-11.020546
-11.142527
-11.267611
-11.692604
-11.364342
-14.237499
-10.985486
-17.325467
-12.123218
-6.484202
-2.416584
0.888711
3.449479
5.358792
6.669429
7.412846
7.615815
7.365407
6.792596
6.112130
5.670010
5.704899
5.616291
5.802238
6.225349
6.670032
6.952408
6.919383
6.470884
5.532879
4.067022
2.068757
-0.472843
-3.618892
-7.348468
-12.450793
-16.736284
5.513056
5.856871
6.291443
6.627789
6.726580
6.486550
5.846491
4.766318
3.219311
1.187944
-1.332982
-4.400004
-7.752368
-11.600908
-15.976426
5.500904
5.900080
6.267372
6.453790
6.374721
5.958751
5.163404
3.963632
2.351815
0.331141
-2.060650
-4.852723
-7.921418
-10.427067
-11.434931
5.551110
5.987586
6.291965
6.352566
6.121413
5.557963
4.642507
3.364779
1.727584
-0.259363
-2.543961
-5.015612
-7.607127
-9.986068
-11.368312
5.707106
6.114382
6.320813
6.248699
5.877985
5.188336
4.175100
2.841680
1.205756
-0.700949
-2.833136
-5.067818
-7.163377
-8.851432
-10.064152
5.977309
6.318704
6.411024
6.207804
5.709484
4.912780
3.825169
2.460175
0.841577
-0.984162
-2.947033
-4.960456
-6.894370
-8.574100
-9.862104
6.350016
6.582878
6.542362
6.207360
5.590982
4.701978
3.556389
2.176925
0.594083
-1.146842
-2.973893
-4.790810
-6.498351
-8.067596
-9.473479
6.813531
6.909487
6.725254
6.260829
5.536127
4.568713
3.379552
1.995505
0.451227
-1.207694
-2.924620
-4.641268
-6.291235
-7.858074
-9.293821
7.339156
7.278524
6.944914
6.355642
5.532186
4.497787
3.275913
1.894758
0.387047
-1.206314
-2.836171
-4.462207
-6.051767
-7.626718
-9.130957
7.901557
7.676126
7.193943
6.487367
5.575354
4.484079
3.236468
1.860047
0.384103
-1.159328
-2.736430
-4.322855
-5.894179
-7.476732
-9.008772
8.472447
8.082669
7.458344
6.644287
5.653911
4.514375
3.246045
1.873533
0.421183
-1.085945
-2.623794
-4.180510
-5.742414
-7.341987
-8.906538
9.027772
8.482090
7.726854
6.816876
5.758238
4.577578
3.291576
1.921140
0.484824
-0.999812
-2.516742
-4.060413
-5.619267
-7.229146
-8.812796
9.546913
8.859301
7.987718
6.994299
5.877232
4.661795
3.360165
1.989407
0.563159
-0.906493
-2.409352
-3.945229
-5.504205
-7.124409
-8.721887
10.014811
9.202874
8.231318
7.167371
6.001218
4.756647
3.441208
2.068463
0.647633
-0.813478
-2.308201
-3.839252
-5.396700
-7.021844
-8.625331
10.420868
9.504484
8.449719
7.328036
6.121567
4.853061
3.525728
2.150431
0.732989
-0.721831
-2.209728
-3.735973
-5.289674
-6.915415
-8.517324
10.759378
9.759261
8.637441
7.469978
6.231299
4.943847
3.606971
2.229569
0.814976
-0.634070
-2.114475
-3.633571
-5.178876
-6.799330
-8.391440
11.029437
9.964945
8.790952
7.588401
6.324972
5.023335
3.679800
2.302039
0.891778
-0.549740
-2.019928
-3.528210
-5.059604
-6.668452
-8.241820
11.233707
10.121258
8.908354
7.679873
6.398493
5.087259
3.740491
2.365126
0.962022
-0.468744
-1.924365
-3.416686
-4.927315
-6.517643
-8.062760
11.376664
10.229114
8.988779
7.741833
6.448690
5.132351
3.786413
2.417250
1.025549
-0.389769
-1.825114
-3.295417
-4.777525
-6.342056
-7.848948
11.463358
10.289709
9.031698
7.772130
6.472909
5.155967
3.815525
2.457305
1.082448
-0.311478
-1.719361
-3.160512
-4.605531
-6.136781
-7.595637
11.497844
10.303874
9.036074
7.768516
6.468512
5.155598
3.826152
2.484776
1.133925
-0.231422
-1.603457
-3.007853
-4.406416
-5.897658
-7.298719
11.482017
10.271282
8.999715
7.727915
6.432393
5.128510
3.816662
2.498944
1.180862
-0.146718
-1.472614
-2.831760
-4.174691
-5.619598
-6.956039
11.415045
10.189319
8.918913
7.645544
6.360608
5.071098
3.786323
2.501485
1.227528
-0.052767
-1.320377
-2.626471
-3.903753
-5.300645
-6.566010
11.293204
10.051274
8.787945
7.513870
6.248249
4.978359
3.731734
2.491366
1.278274
0.059871
-1.136185
-2.379315
-3.585597
-4.931870
-6.133658
11.109399
9.844534
8.598189
7.320780
6.089063
4.848711
3.660424
2.477134
1.344327
0.201159
-0.903536
-2.082563
-3.204903
-4.521662
-5.654613
10.851222
9.548811
8.336905
7.049989
5.867896
4.665696
3.565108
2.471489
1.448090
0.405818
-0.596165
-1.693780
-2.751350
-4.028225
-5.161386
10.496664
9.131315
7.981348
6.687384
5.599223
4.454115
3.476408
2.491292
1.627991
0.689724
-0.161668
-1.222806
-2.159049
-3.525558
-4.576417
10.009745
8.549287
7.478020
6.159238
5.215974
4.203027
3.438583
2.629927
1.958438
1.185386
0.446919
-0.488416
-1.456801
-2.744912
-4.096867
9.310846
7.755359
6.858089
5.541900
4.838254
3.965391
3.548624
2.905494
2.557363
1.837799
1.412748
0.315737
-0.292570
-2.171456
-3.091237
8.186898
6.402057
5.774921
4.667505
4.590151
4.020704
4.057430
3.674305
3.587028
3.121150
2.752148
1.985486
1.071207
-0.337032
-2.476250
6.859067
4.463355
4.921099
3.894606
4.860685
4.375489
5.093439
4.685408
5.193460
4.492743
4.971097
3.452117
4.060182
0.685671
0.813013
