# vtk DataFile Version 2.0
patchtest_tri3_mix
ASCII
DATASET POLYDATA
POINTS 5 float
0.000000 0.000000 0.000000
1.000000 0.000000 0.000000
1.000000 1.000000 0.000000
0.000000 1.000000 0.000000
0.500001 0.500020 0.000000
POLYGONS 4 16
3 3 0 4
3 4 1 2
3 1 4 0
3 4 2 3
POINT_DATA 5
SCALARS U float 1
LOOKUP_TABLE default
0.247545
0.487612
6.326898
0.515340
-6.277947
