# vtk DataFile Version 2.0
patchtest_tri3_mix
ASCII
DATASET POLYDATA
POINTS 160 float
0.000000 0.000000 0.000000
1.000000 0.000000 0.000000
1.000000 1.000000 0.000000
0.000000 1.000000 0.000000
0.083333 0.000000 0.000000
0.166667 0.000000 0.000000
0.250000 0.000000 0.000000
0.333333 0.000000 0.000000
0.416667 0.000000 0.000000
0.500000 0.000000 0.000000
0.583333 0.000000 0.000000
0.666667 0.000000 0.000000
0.750000 0.000000 0.000000
0.833333 0.000000 0.000000
0.916667 0.000000 0.000000
1.000000 0.083333 0.000000
1.000000 0.166667 0.000000
1.000000 0.250000 0.000000
1.000000 0.333333 0.000000
1.000000 0.416667 0.000000
1.000000 0.500000 0.000000
1.000000 0.583333 0.000000
1.000000 0.666667 0.000000
1.000000 0.750000 0.000000
1.000000 0.833333 0.000000
1.000000 0.916667 0.000000
0.916667 1.000000 0.000000
0.833333 1.000000 0.000000
0.750000 1.000000 0.000000
0.666667 1.000000 0.000000
0.583333 1.000000 0.000000
0.500000 1.000000 0.000000
0.416667 1.000000 0.000000
0.333333 1.000000 0.000000
0.250000 1.000000 0.000000
0.166667 1.000000 0.000000
0.083333 1.000000 0.000000
0.000000 0.916667 0.000000
0.000000 0.833333 0.000000
0.000000 0.750000 0.000000
0.000000 0.666667 0.000000
0.000000 0.583333 0.000000
0.000000 0.500000 0.000000
0.000000 0.416667 0.000000
0.000000 0.333333 0.000000
0.000000 0.250000 0.000000
0.000000 0.166667 0.000000
0.000000 0.083333 0.000000
0.405277 0.726815 0.000000
0.914469 0.334736 0.000000
0.495736 0.179431 0.000000
0.664496 0.914560 0.000000
0.574797 0.330628 0.000000
0.487250 0.658954 0.000000
0.316758 0.666967 0.000000
0.084096 0.730177 0.000000
0.084100 0.915740 0.000000
0.497060 0.088349 0.000000
0.330751 0.916167 0.000000
0.914838 0.581672 0.000000
0.828738 0.332299 0.000000
0.743992 0.501209 0.000000
0.569953 0.506185 0.000000
0.081631 0.206932 0.000000
0.329414 0.178149 0.000000
0.579139 0.241950 0.000000
0.414506 0.084665 0.000000
0.828005 0.415482 0.000000
0.162855 0.367001 0.000000
0.916373 0.167996 0.000000
0.160115 0.574339 0.000000
0.915573 0.252175 0.000000
0.248920 0.085490 0.000000
0.410269 0.339063 0.000000
0.413016 0.168435 0.000000
0.743943 0.662006 0.000000
0.497446 0.915125 0.000000
0.242586 0.331653 0.000000
0.832921 0.167741 0.000000
0.236942 0.731471 0.000000
0.573243 0.661572 0.000000
0.580493 0.159886 0.000000
0.915846 0.915988 0.000000
0.914744 0.497852 0.000000
0.317082 0.573488 0.000000
0.082689 0.417354 0.000000
0.830929 0.831760 0.000000
0.245926 0.917339 0.000000
0.571429 0.584019 0.000000
0.745099 0.746144 0.000000
0.829424 0.664907 0.000000
0.164261 0.898064 0.000000
0.234341 0.628982 0.000000
0.581093 0.914539 0.000000
0.491441 0.745563 0.000000
0.829667 0.581836 0.000000
0.829564 0.498556 0.000000
0.831878 0.915736 0.000000
0.084456 0.625583 0.000000
0.161846 0.792487 0.000000
0.082629 0.100396 0.000000
0.660555 0.743735 0.000000
0.579048 0.829066 0.000000
0.915410 0.832273 0.000000
0.399833 0.531690 0.000000
0.245248 0.167409 0.000000
0.411084 0.251813 0.000000
0.401126 0.630643 0.000000
0.749019 0.162742 0.000000
0.411367 0.820385 0.000000
0.325436 0.369651 0.000000
0.916459 0.084018 0.000000
0.661359 0.278306 0.000000
0.159346 0.683019 0.000000
0.489885 0.375382 0.000000
0.742569 0.418398 0.000000
0.495440 0.830568 0.000000
0.746634 0.245609 0.000000
0.243595 0.425430 0.000000
0.083214 0.826734 0.000000
0.748055 0.915203 0.000000
0.572651 0.421870 0.000000
0.484266 0.473799 0.000000
0.657222 0.477757 0.000000
0.657683 0.569861 0.000000
0.748670 0.082727 0.000000
0.581528 0.081722 0.000000
0.160894 0.170678 0.000000
0.744082 0.332054 0.000000
0.914996 0.748727 0.000000
0.665411 0.088645 0.000000
0.830877 0.250300 0.000000
0.327605 0.271980 0.000000
0.662681 0.829138 0.000000
0.746632 0.830574 0.000000
0.243914 0.246490 0.000000
0.414401 0.911196 0.000000
0.658946 0.657891 0.000000
0.327994 0.836324 0.000000
0.083658 0.519521 0.000000
0.160200 0.265997 0.000000
0.321389 0.472329 0.000000
0.331500 0.088280 0.000000
0.829994 0.748120 0.000000
0.664427 0.180714 0.000000
0.493702 0.274644 0.000000
0.576011 0.743846 0.000000
0.403573 0.432450 0.000000
0.743492 0.580417 0.000000
0.657857 0.378520 0.000000
0.242735 0.828532 0.000000
0.484190 0.568749 0.000000
0.914079 0.415483 0.000000
0.239792 0.526270 0.000000
0.914759 0.665258 0.000000
0.322659 0.754955 0.000000
0.163664 0.469315 0.000000
0.833066 0.083560 0.000000
0.165396 0.082610 0.000000
0.082587 0.314395 0.000000
POLYGONS 270 1080
3 100 47 4
3 46 100 63
3 100 46 47
3 63 100 127
3 46 63 45
3 47 0 4
3 4 5 158
3 135 127 105
3 127 100 158
3 158 105 127
3 63 127 140
3 158 5 6
3 158 100 4
3 140 127 135
3 45 159 44
3 45 63 159
3 44 85 43
3 85 44 159
3 42 43 85
3 159 68 85
3 140 77 68
3 77 140 135
3 68 118 156
3 118 68 77
3 153 156 118
3 156 85 68
3 118 77 110
3 68 159 140
3 63 140 159
3 139 85 156
3 77 135 132
3 142 72 7
3 72 105 158
3 105 142 64
3 142 105 72
3 64 142 74
3 64 132 135
3 72 6 7
3 72 158 6
3 7 8 66
3 74 66 57
3 74 142 66
3 57 66 8
3 74 57 50
3 8 9 57
3 66 142 7
3 64 74 106
3 132 73 110
3 73 132 106
3 141 110 147
3 118 110 141
3 147 110 73
3 104 141 147
3 73 114 147
3 77 132 110
3 106 50 145
3 106 132 64
3 114 122 147
3 73 145 114
3 121 122 114
3 151 122 62
3 114 145 52
3 73 106 145
3 74 50 106
3 104 147 122
3 145 50 65
3 105 64 135
3 153 118 141
3 42 139 41
3 42 85 139
3 40 98 55
3 41 98 40
3 40 55 39
3 41 139 98
3 98 70 113
3 70 98 139
3 113 92 79
3 92 113 70
3 79 92 54
3 55 113 99
3 70 153 92
3 98 113 55
3 156 70 139
3 99 113 79
3 39 119 38
3 39 55 119
3 56 37 38
3 36 3 37
3 56 38 119
3 91 56 119
3 91 99 150
3 36 56 35
3 56 36 37
3 35 56 91
3 91 87 35
3 91 119 99
3 55 99 119
3 150 99 79
3 141 84 153
3 156 153 70
3 54 84 107
3 54 92 84
3 155 54 48
3 155 79 54
3 107 84 104
3 79 155 150
3 107 151 53
3 151 107 104
3 48 53 94
3 53 48 107
3 88 53 151
3 155 48 109
3 80 94 53
3 107 48 54
3 104 122 151
3 109 48 94
3 150 138 87
3 150 155 138
3 87 58 34
3 58 87 138
3 34 58 33
3 87 34 35
3 138 136 58
3 150 87 91
3 109 116 136
3 116 109 94
3 58 32 33
3 58 136 32
3 76 32 136
3 136 116 76
3 136 138 109
3 155 109 138
3 94 146 116
3 92 153 84
3 104 84 141
3 50 57 81
3 9 10 126
3 144 81 130
3 81 57 126
3 126 130 81
3 81 144 65
3 126 10 11
3 81 65 50
3 11 12 125
3 130 125 108
3 125 130 11
3 108 78 117
3 130 108 144
3 157 108 125
3 11 130 126
3 144 108 117
3 149 52 112
3 52 145 65
3 121 149 123
3 149 121 52
3 123 149 115
3 121 123 62
3 52 65 112
3 121 114 52
3 112 117 128
3 112 65 144
3 115 128 67
3 115 149 128
3 60 67 128
3 61 123 115
3 131 128 117
3 128 149 112
3 144 117 112
3 96 115 67
3 125 12 157
3 121 62 122
3 157 13 111
3 108 157 78
3 78 111 69
3 111 78 157
3 69 111 16
3 71 78 69
3 13 14 111
3 78 131 117
3 14 1 15
3 16 111 15
3 17 69 16
3 111 14 15
3 71 69 17
3 49 60 71
3 60 128 131
3 152 96 67
3 67 49 152
3 152 49 19
3 96 152 83
3 60 131 71
3 67 60 49
3 19 49 18
3 18 71 17
3 83 19 20
3 83 152 19
3 96 83 59
3 18 49 71
3 131 78 71
3 59 83 20
3 157 12 13
3 61 115 96
3 62 124 88
3 62 123 124
3 88 137 80
3 146 80 137
3 102 116 146
3 146 94 80
3 137 88 124
3 80 53 88
3 75 148 95
3 148 137 124
3 137 75 101
3 75 137 148
3 101 75 89
3 137 101 146
3 75 90 89
3 148 124 61
3 123 61 124
3 146 101 102
3 102 93 76
3 30 93 51
3 93 31 76
3 31 93 30
3 76 31 32
3 93 102 133
3 76 116 102
3 133 89 134
3 133 102 101
3 29 51 120
3 134 51 133
3 120 51 134
3 51 29 30
3 134 89 143
3 133 51 93
3 101 89 133
3 61 95 148
3 151 62 88
3 90 95 154
3 143 89 90
3 86 143 129
3 154 143 90
3 129 143 154
3 86 120 134
3 95 59 154
3 86 134 143
3 21 22 154
3 95 96 59
3 129 22 23
3 129 154 22
3 86 129 103
3 154 59 21
3 61 96 95
3 103 129 23
3 86 97 120
3 97 86 103
3 28 97 27
3 97 28 120
3 82 27 97
3 97 103 82
3 120 28 29
3 82 24 25
3 24 82 103
3 26 25 2
3 25 26 82
3 82 26 27
3 103 23 24
3 90 75 95
3 20 21 59
3 9 126 57
POINT_DATA 160
SCALARS U float 1
LOOKUP_TABLE default
-0.003674
1.055501
8.040983
1.065621
0.018677
0.082463
0.025772
0.132678
0.016236
0.339288
0.283207
0.548525
0.560709
0.692112
0.930847
1.482143
1.691311
2.073289
2.447767
2.980745
3.561867
4.232578
4.692934
5.666022
6.142806
7.371200
7.428794
6.158814
5.785415
4.599014
4.349549
3.365422
3.200433
2.419284
2.252734
1.553148
1.481245
0.904874
0.494441
0.592402
0.440066
0.367839
0.168968
0.024105
-0.040795
-0.013906
0.026334
0.061789
1.951845
2.196548
0.488891
4.394466
0.686752
1.506384
0.955891
1.034944
1.428813
0.619197
2.366500
3.876901
1.808578
2.423922
1.542219
0.014456
0.237955
0.845938
0.165765
2.142628
0.340343
1.448041
0.397974
2.095926
0.136220
0.333244
0.256927
3.321513
3.324628
0.117909
1.095179
1.415909
2.296545
0.420722
7.004565
3.448562
0.806050
0.079904
4.558773
2.103227
1.959562
3.896182
3.258431
1.442570
1.005634
3.960970
2.269566
2.980869
2.400227
5.721742
0.705025
0.993082
0.142529
3.169023
2.971612
5.599046
1.113163
0.120999
0.342063
1.435726
0.869734
2.020048
0.669053
1.621155
1.164351
0.585332
1.043171
1.927620
2.436341
1.467981
0.322825
0.771618
5.372585
1.246838
1.085112
1.568608
2.121822
1.248638
0.694373
0.045776
1.414934
5.277620
0.798378
1.400355
0.614944
3.372386
4.199587
0.141524
2.845228
2.266729
1.707769
0.524850
0.284981
0.706847
0.346363
4.297739
0.807803
0.934447
2.814806
0.682721
2.741416
1.481214
1.319364
1.394567
2.758639
0.765612
4.443097
1.549228
0.371535
0.944409
0.155530
-0.004258
