# vtk DataFile Version 2.0
patchtest_tri3_mix
ASCII
DATASET POLYDATA
POINTS 140 float
0.000000 0.000000 0.000000
1.000000 0.000000 0.000000
1.000000 1.000000 0.000000
0.000000 1.000000 0.000000
0.090909 0.000000 0.000000
0.181818 0.000000 0.000000
0.272727 0.000000 0.000000
0.363636 0.000000 0.000000
0.454545 0.000000 0.000000
0.545455 0.000000 0.000000
0.636364 0.000000 0.000000
0.727273 0.000000 0.000000
0.818182 0.000000 0.000000
0.909091 0.000000 0.000000
1.000000 0.090909 0.000000
1.000000 0.181818 0.000000
1.000000 0.272727 0.000000
1.000000 0.363636 0.000000
1.000000 0.454545 0.000000
1.000000 0.545455 0.000000
1.000000 0.636364 0.000000
1.000000 0.727273 0.000000
1.000000 0.818182 0.000000
1.000000 0.909091 0.000000
0.909091 1.000000 0.000000
0.818182 1.000000 0.000000
0.727273 1.000000 0.000000
0.636364 1.000000 0.000000
0.545455 1.000000 0.000000
0.454545 1.000000 0.000000
0.363636 1.000000 0.000000
0.272727 1.000000 0.000000
0.181818 1.000000 0.000000
0.090909 1.000000 0.000000
0.000000 0.909091 0.000000
0.000000 0.818182 0.000000
0.000000 0.727273 0.000000
0.000000 0.636364 0.000000
0.000000 0.545455 0.000000
0.000000 0.454545 0.000000
0.000000 0.363636 0.000000
0.000000 0.272727 0.000000
0.000000 0.181818 0.000000
0.000000 0.090909 0.000000
0.453604 0.910063 0.000000
0.544633 0.378471 0.000000
0.274504 0.546778 0.000000
0.183097 0.545895 0.000000
0.908348 0.616349 0.000000
0.182156 0.364194 0.000000
0.907723 0.294240 0.000000
0.727842 0.909833 0.000000
0.544656 0.804004 0.000000
0.307945 0.179700 0.000000
0.091012 0.634338 0.000000
0.487592 0.093689 0.000000
0.902977 0.095111 0.000000
0.366936 0.638052 0.000000
0.090799 0.726006 0.000000
0.099300 0.181003 0.000000
0.362679 0.455096 0.000000
0.818794 0.452914 0.000000
0.816413 0.356695 0.000000
0.908911 0.511523 0.000000
0.636247 0.823320 0.000000
0.455819 0.544995 0.000000
0.818064 0.728346 0.000000
0.090928 0.364963 0.000000
0.802569 0.089374 0.000000
0.360710 0.817348 0.000000
0.458192 0.639351 0.000000
0.909827 0.812364 0.000000
0.725446 0.638272 0.000000
0.717983 0.180198 0.000000
0.699471 0.091355 0.000000
0.177412 0.272641 0.000000
0.907173 0.192646 0.000000
0.622747 0.183076 0.000000
0.091375 0.543852 0.000000
0.182523 0.634475 0.000000
0.546058 0.696887 0.000000
0.909258 0.715980 0.000000
0.182008 0.816419 0.000000
0.524315 0.185565 0.000000
0.274418 0.454712 0.000000
0.184306 0.455628 0.000000
0.268396 0.271312 0.000000
0.593874 0.093186 0.000000
0.092085 0.455161 0.000000
0.273176 0.725425 0.000000
0.727966 0.820655 0.000000
0.727297 0.362099 0.000000
0.909455 0.906701 0.000000
0.636943 0.366111 0.000000
0.634960 0.639582 0.000000
0.365117 0.726862 0.000000
0.089798 0.272160 0.000000
0.091765 0.817364 0.000000
0.201355 0.180498 0.000000
0.635236 0.910177 0.000000
0.270925 0.908160 0.000000
0.728759 0.454107 0.000000
0.457731 0.272774 0.000000
0.453121 0.363014 0.000000
0.416578 0.180261 0.000000
0.638256 0.544455 0.000000
0.452562 0.453241 0.000000
0.631979 0.273799 0.000000
0.363161 0.362199 0.000000
0.726125 0.729878 0.000000
0.819400 0.816624 0.000000
0.381663 0.090941 0.000000
0.721827 0.270713 0.000000
0.270796 0.815847 0.000000
0.181598 0.724543 0.000000
0.819246 0.907680 0.000000
0.281686 0.090539 0.000000
0.816917 0.547459 0.000000
0.545474 0.478576 0.000000
0.365503 0.547641 0.000000
0.637055 0.454620 0.000000
0.182121 0.908434 0.000000
0.814111 0.263362 0.000000
0.727581 0.546443 0.000000
0.816811 0.639468 0.000000
0.547200 0.585399 0.000000
0.274630 0.636917 0.000000
0.362913 0.270989 0.000000
0.186499 0.090926 0.000000
0.544438 0.903665 0.000000
0.547516 0.282531 0.000000
0.093130 0.091532 0.000000
0.273411 0.362586 0.000000
0.455976 0.734053 0.000000
0.452261 0.823633 0.000000
0.635243 0.734060 0.000000
0.812153 0.174465 0.000000
0.361002 0.909106 0.000000
0.091776 0.908631 0.000000
0.908485 0.401773 0.000000
POLYGONS 234 936
3 131 42 43
3 42 96 41
3 59 96 42
3 43 0 4
3 4 5 131
3 131 59 42
3 128 59 131
3 59 75 96
3 4 131 43
3 98 75 59
3 41 96 40
3 39 67 88
3 67 39 40
3 67 40 96
3 49 88 67
3 86 49 75
3 78 88 85
3 88 78 39
3 85 88 49
3 47 78 85
3 85 49 132
3 49 67 75
3 96 75 67
3 39 78 38
3 131 5 128
3 6 116 128
3 116 6 7
3 128 98 59
3 98 128 116
3 116 53 98
3 6 128 5
3 7 8 111
3 53 111 104
3 53 116 111
3 55 104 111
3 98 53 86
3 104 83 102
3 111 116 7
3 127 53 104
3 84 85 132
3 108 84 132
3 46 85 84
3 108 60 84
3 132 86 127
3 49 86 132
3 127 102 103
3 102 127 104
3 108 103 106
3 103 108 127
3 45 106 103
3 108 106 60
3 106 118 65
3 127 108 132
3 86 53 127
3 46 84 60
3 55 111 8
3 75 98 86
3 119 60 106
3 58 37 54
3 36 58 97
3 58 36 37
3 37 38 54
3 54 47 79
3 54 38 78
3 82 114 113
3 79 114 54
3 126 114 79
3 54 114 58
3 47 54 78
3 58 114 82
3 33 34 138
3 33 3 34
3 34 35 138
3 97 82 121
3 97 35 36
3 138 121 32
3 121 138 97
3 32 121 100
3 138 32 33
3 121 82 100
3 97 138 35
3 58 82 97
3 79 47 46
3 126 89 114
3 95 126 57
3 69 89 95
3 95 89 126
3 126 46 119
3 89 113 114
3 119 65 57
3 119 46 60
3 70 133 95
3 70 57 65
3 133 52 134
3 70 95 57
3 70 65 125
3 119 57 126
3 47 85 46
3 69 95 133
3 113 69 100
3 69 113 89
3 100 31 32
3 137 31 100
3 100 69 137
3 113 100 82
3 137 134 44
3 134 137 69
3 30 44 29
3 44 30 137
3 28 29 44
3 44 134 129
3 137 30 31
3 69 133 134
3 133 70 80
3 79 46 126
3 119 106 65
3 102 130 103
3 9 87 55
3 87 9 10
3 83 87 77
3 87 83 55
3 87 74 77
3 9 55 8
3 10 11 74
3 73 77 74
3 68 73 74
3 73 122 112
3 74 87 10
3 77 73 107
3 130 45 103
3 83 77 130
3 106 45 118
3 120 118 45
3 45 130 93
3 83 130 102
3 107 112 93
3 130 77 107
3 120 93 101
3 91 93 112
3 101 93 91
3 120 45 93
3 91 112 62
3 93 130 107
3 73 112 107
3 105 118 120
3 11 68 74
3 118 125 65
3 68 12 56
3 136 73 68
3 136 56 76
3 56 136 68
3 12 13 56
3 122 73 136
3 13 1 14
3 56 15 76
3 56 14 15
3 76 15 16
3 14 56 13
3 136 76 122
3 61 91 62
3 61 62 139
3 117 101 61
3 101 91 61
3 62 122 50
3 112 122 62
3 50 16 17
3 50 122 76
3 139 17 18
3 17 139 50
3 61 139 63
3 50 139 62
3 76 16 50
3 120 101 105
3 68 11 12
3 18 63 139
3 125 94 80
3 94 125 105
3 80 135 52
3 135 80 94
3 94 109 135
3 52 133 80
3 105 123 72
3 105 101 123
3 109 94 72
3 124 109 72
3 109 110 90
3 72 94 105
3 125 118 105
3 135 109 90
3 99 129 64
3 129 134 52
3 28 99 27
3 99 28 129
3 129 52 64
3 28 44 129
3 64 90 51
3 64 52 135
3 27 51 26
3 27 99 51
3 26 51 25
3 90 115 51
3 51 99 64
3 135 90 64
3 117 72 123
3 70 125 80
3 117 48 124
3 48 117 63
3 109 66 110
3 81 66 124
3 124 48 81
3 117 124 72
3 19 20 48
3 19 63 18
3 81 20 21
3 81 48 20
3 66 81 71
3 48 63 19
3 123 101 117
3 71 81 21
3 24 115 92
3 25 51 115
3 24 25 115
3 115 110 92
3 90 110 115
3 71 22 92
3 22 71 21
3 23 2 24
3 23 92 22
3 23 24 92
3 71 92 110
3 110 66 71
3 66 109 124
3 63 117 61
3 83 104 55
POINT_DATA 140
SCALARS U float 1
LOOKUP_TABLE default
0.011439
1.219093
7.571650
0.582733
1.482543
2.547616
-0.071747
0.271809
2.383759
0.324114
-0.750848
2.169976
0.927212
0.190040
1.374581
0.879246
1.388661
2.040015
3.411399
2.102730
3.979955
4.373015
5.656517
5.173655
7.104139
5.049761
0.760681
4.415383
2.177495
-2.750031
0.512556
-0.112058
-3.884018
-4.015027
-2.664987
3.640010
-3.064868
1.180065
-0.456094
-0.122848
-2.180689
3.075959
-0.397347
0.013409
-8.328557
0.455734
-3.093033
-3.033442
1.612362
-1.382263
-0.023206
-3.384896
0.318941
0.614706
2.835028
2.740809
0.570051
-1.230881
-8.251556
-1.278752
-0.811736
1.791316
0.747741
0.424806
2.898883
-2.707016
1.038011
-3.594617
1.854391
0.124847
2.353413
3.476244
1.817058
-0.952943
1.668450
1.906127
0.075058
1.117048
-4.598819
1.203842
-1.334315
1.238679
0.445988
-0.537359
0.870894
1.124359
1.949908
0.350417
2.384611
-7.656560
2.986750
-0.781873
1.823511
-0.144276
1.682188
-2.327769
4.241445
4.871798
-0.854997
-0.257903
-7.734768
1.360920
3.386121
-2.305777
-0.971618
-0.132964
1.221186
1.645946
0.227698
-1.935030
4.329845
2.040941
0.679063
2.302385
-4.129178
2.379984
1.548200
1.303689
-0.566144
-1.108288
0.610747
-7.658574
2.100362
-2.575552
3.077474
-0.840544
1.015135
0.377548
3.958619
-3.645185
-0.278506
2.972691
-1.867693
-6.385961
3.545114
-1.790771
0.898922
-5.511088
-10.771913
1.456063
