# vtk DataFile Version 2.0
patchtest_tri3_mix
ASCII
DATASET POLYDATA
POINTS 200 float
0.000000 0.000000 0.000000
1.000000 0.000000 0.000000
1.000000 1.000000 0.000000
0.000000 1.000000 0.000000
0.071429 0.000000 0.000000
0.142857 0.000000 0.000000
0.214286 0.000000 0.000000
0.285714 0.000000 0.000000
0.357143 0.000000 0.000000
0.428571 0.000000 0.000000
0.500000 0.000000 0.000000
0.571429 0.000000 0.000000
0.642857 0.000000 0.000000
0.714286 0.000000 0.000000
0.785714 0.000000 0.000000
0.857143 0.000000 0.000000
0.928571 0.000000 0.000000
1.000000 0.071429 0.000000
1.000000 0.142857 0.000000
1.000000 0.214286 0.000000
1.000000 0.285714 0.000000
1.000000 0.357143 0.000000
1.000000 0.428571 0.000000
1.000000 0.500000 0.000000
1.000000 0.571429 0.000000
1.000000 0.642857 0.000000
1.000000 0.714286 0.000000
1.000000 0.785714 0.000000
1.000000 0.857143 0.000000
1.000000 0.928571 0.000000
0.928571 1.000000 0.000000
0.857143 1.000000 0.000000
0.785714 1.000000 0.000000
0.714286 1.000000 0.000000
0.642857 1.000000 0.000000
0.571429 1.000000 0.000000
0.500000 1.000000 0.000000
0.428571 1.000000 0.000000
0.357143 1.000000 0.000000
0.285714 1.000000 0.000000
0.214286 1.000000 0.000000
0.142857 1.000000 0.000000
0.071429 1.000000 0.000000
0.000000 0.928571 0.000000
0.000000 0.857143 0.000000
0.000000 0.785714 0.000000
0.000000 0.714286 0.000000
0.000000 0.642857 0.000000
0.000000 0.571429 0.000000
0.000000 0.500000 0.000000
0.000000 0.428571 0.000000
0.000000 0.357143 0.000000
0.000000 0.285714 0.000000
0.000000 0.214286 0.000000
0.000000 0.142857 0.000000
0.000000 0.071429 0.000000
0.926049 0.392136 0.000000
0.834930 0.922112 0.000000
0.785761 0.738218 0.000000
0.642177 0.482404 0.000000
0.072130 0.573193 0.000000
0.854731 0.350169 0.000000
0.927742 0.714737 0.000000
0.854969 0.264537 0.000000
0.458961 0.080942 0.000000
0.717556 0.779957 0.000000
0.215920 0.572435 0.000000
0.072411 0.488623 0.000000
0.145954 0.089858 0.000000
0.502420 0.655213 0.000000
0.073267 0.403995 0.000000
0.578152 0.861689 0.000000
0.926171 0.475473 0.000000
0.431773 0.697650 0.000000
0.281679 0.201615 0.000000
0.142542 0.274928 0.000000
0.503703 0.740948 0.000000
0.783603 0.394026 0.000000
0.428023 0.355675 0.000000
0.916916 0.929465 0.000000
0.223304 0.069324 0.000000
0.784187 0.564702 0.000000
0.286769 0.445036 0.000000
0.783680 0.479232 0.000000
0.205323 0.150249 0.000000
0.500091 0.484353 0.000000
0.512708 0.916872 0.000000
0.713384 0.267051 0.000000
0.358312 0.486081 0.000000
0.145119 0.935473 0.000000
0.501195 0.569757 0.000000
0.574315 0.129711 0.000000
0.215085 0.402955 0.000000
0.426647 0.267200 0.000000
0.072631 0.071664 0.000000
0.357008 0.229361 0.000000
0.425295 0.172388 0.000000
0.499955 0.147923 0.000000
0.216611 0.657066 0.000000
0.144119 0.445904 0.000000
0.146233 0.862549 0.000000
0.570694 0.441469 0.000000
0.289804 0.781917 0.000000
0.646019 0.147824 0.000000
0.933018 0.860260 0.000000
0.642958 0.567920 0.000000
0.668103 0.919610 0.000000
0.575517 0.780774 0.000000
0.072894 0.657841 0.000000
0.286292 0.361052 0.000000
0.358995 0.571191 0.000000
0.364192 0.915584 0.000000
0.362449 0.828444 0.000000
0.285576 0.278936 0.000000
0.712719 0.352629 0.000000
0.927075 0.070541 0.000000
0.428825 0.442074 0.000000
0.926242 0.308518 0.000000
0.218260 0.915383 0.000000
0.217473 0.742110 0.000000
0.073908 0.742796 0.000000
0.385363 0.079790 0.000000
0.592260 0.930871 0.000000
0.926939 0.557515 0.000000
0.497438 0.313116 0.000000
0.712794 0.438060 0.000000
0.308128 0.068142 0.000000
0.854683 0.519757 0.000000
0.569807 0.357626 0.000000
0.781912 0.140043 0.000000
0.779717 0.065642 0.000000
0.642529 0.228527 0.000000
0.498911 0.398889 0.000000
0.855757 0.772767 0.000000
0.072838 0.915118 0.000000
0.784790 0.650632 0.000000
0.757364 0.923393 0.000000
0.568976 0.276229 0.000000
0.783954 0.308973 0.000000
0.855302 0.604640 0.000000
0.854566 0.435060 0.000000
0.713235 0.523532 0.000000
0.854344 0.176623 0.000000
0.927657 0.637770 0.000000
0.429694 0.527657 0.000000
0.644157 0.653888 0.000000
0.218266 0.828437 0.000000
0.276924 0.130294 0.000000
0.853649 0.087560 0.000000
0.073074 0.318894 0.000000
0.570010 0.200162 0.000000
0.350726 0.148369 0.000000
0.505517 0.828291 0.000000
0.214247 0.317748 0.000000
0.928668 0.788111 0.000000
0.646459 0.829667 0.000000
0.211475 0.233201 0.000000
0.715235 0.694841 0.000000
0.574208 0.696724 0.000000
0.359862 0.656268 0.000000
0.288770 0.698427 0.000000
0.290723 0.862419 0.000000
0.357878 0.400796 0.000000
0.718107 0.858864 0.000000
0.705217 0.086521 0.000000
0.641751 0.397196 0.000000
0.430676 0.612855 0.000000
0.435561 0.862584 0.000000
0.855471 0.689208 0.000000
0.862968 0.852362 0.000000
0.926541 0.145565 0.000000
0.572761 0.611578 0.000000
0.641567 0.312223 0.000000
0.144373 0.614843 0.000000
0.357715 0.315263 0.000000
0.145900 0.782267 0.000000
0.287268 0.529559 0.000000
0.495364 0.228167 0.000000
0.625482 0.068881 0.000000
0.140108 0.187399 0.000000
0.714673 0.180096 0.000000
0.784570 0.224042 0.000000
0.438212 0.934573 0.000000
0.074090 0.829276 0.000000
0.789703 0.831491 0.000000
0.537788 0.069107 0.000000
0.215522 0.487822 0.000000
0.360967 0.741667 0.000000
0.143994 0.530533 0.000000
0.073999 0.148816 0.000000
0.287914 0.614097 0.000000
0.714004 0.609113 0.000000
0.571622 0.526339 0.000000
0.433129 0.781591 0.000000
0.145228 0.698941 0.000000
0.143954 0.360677 0.000000
0.926465 0.225758 0.000000
0.645874 0.740750 0.000000
0.071974 0.233579 0.000000
0.290879 0.935279 0.000000
POLYGONS 342 1368
3 0 4 55
3 55 4 94
3 54 94 189
3 94 54 55
3 68 189 94
3 53 54 189
3 94 4 5
3 5 6 80
3 80 6 7
3 5 80 68
3 179 68 84
3 179 189 68
3 84 68 80
3 179 84 156
3 84 74 156
3 68 94 5
3 198 189 179
3 53 198 52
3 53 189 198
3 52 198 149
3 50 51 70
3 149 51 52
3 70 51 149
3 198 75 149
3 75 156 153
3 75 198 179
3 113 153 156
3 75 153 195
3 70 195 99
3 70 149 195
3 186 99 92
3 92 99 195
3 195 153 92
3 50 70 67
3 92 153 109
3 195 149 75
3 156 75 179
3 99 67 70
3 80 147 84
3 7 8 126
3 151 126 121
3 126 147 80
3 147 151 74
3 151 147 126
3 95 74 151
3 113 156 74
3 126 8 121
3 126 80 7
3 64 121 9
3 9 121 8
3 64 9 10
3 96 64 97
3 64 96 121
3 185 97 64
3 96 97 177
3 97 150 177
3 121 96 151
3 95 151 96
3 113 95 174
3 95 113 74
3 174 95 93
3 113 174 109
3 109 162 82
3 162 109 174
3 82 162 88
3 92 109 82
3 174 78 162
3 153 113 109
3 93 177 124
3 93 95 96
3 137 124 177
3 93 124 78
3 162 116 88
3 162 78 116
3 88 116 144
3 132 116 78
3 78 124 132
3 85 144 116
3 132 124 128
3 78 174 93
3 96 177 93
3 186 92 82
3 116 132 85
3 84 147 74
3 88 176 82
3 48 49 60
3 67 49 50
3 60 49 67
3 46 47 108
3 60 47 48
3 108 47 60
3 67 188 60
3 188 186 66
3 188 67 99
3 66 186 176
3 188 66 173
3 108 173 194
3 108 60 173
3 98 194 173
3 46 108 120
3 194 119 175
3 173 60 188
3 99 186 188
3 120 108 194
3 44 183 134
3 183 44 45
3 44 134 43
3 43 42 3
3 42 43 134
3 134 89 42
3 120 175 183
3 175 120 194
3 183 175 100
3 120 183 45
3 41 89 40
3 42 89 41
3 89 118 40
3 100 118 89
3 100 89 134
3 146 100 175
3 134 183 100
3 45 46 120
3 66 98 173
3 176 110 190
3 176 88 110
3 160 190 159
3 190 98 66
3 98 160 119
3 160 98 190
3 102 119 160
3 146 175 119
3 190 110 159
3 190 66 176
3 110 166 159
3 166 110 144
3 69 73 166
3 159 166 73
3 187 73 193
3 73 187 159
3 193 152 167
3 102 160 187
3 166 144 90
3 159 187 160
3 186 82 176
3 112 187 193
3 146 102 161
3 102 146 119
3 161 102 112
3 146 161 118
3 199 39 40
3 199 118 161
3 39 199 38
3 199 40 118
3 161 111 199
3 118 100 146
3 112 167 111
3 112 102 187
3 111 167 182
3 111 38 199
3 37 38 182
3 182 36 37
3 86 36 182
3 38 111 182
3 86 182 167
3 111 161 112
3 193 167 112
3 73 76 193
3 119 194 98
3 144 110 88
3 185 64 10
3 11 12 178
3 178 12 164
3 11 178 185
3 91 150 97
3 91 185 178
3 103 150 91
3 150 137 177
3 91 178 103
3 11 185 10
3 164 13 130
3 164 103 178
3 130 13 14
3 164 130 129
3 164 180 103
3 180 164 129
3 87 180 181
3 150 103 131
3 130 148 129
3 164 12 13
3 131 103 180
3 137 172 128
3 172 137 131
3 128 172 165
3 101 132 128
3 101 85 132
3 101 128 165
3 101 165 59
3 192 85 101
3 172 114 165
3 124 137 128
3 87 114 172
3 87 131 180
3 77 114 138
3 125 165 114
3 141 59 125
3 59 165 125
3 77 83 125
3 83 77 140
3 125 114 77
3 83 141 125
3 138 114 87
3 172 131 87
3 137 150 131
3 59 192 101
3 181 180 129
3 185 91 97
3 15 148 130
3 170 148 115
3 142 129 148
3 142 63 181
3 181 129 142
3 170 142 148
3 170 196 142
3 148 15 115
3 181 138 87
3 17 115 16
3 16 115 15
3 17 16 1
3 17 18 115
3 19 170 18
3 18 170 115
3 19 196 170
3 138 63 61
3 63 138 181
3 56 61 117
3 61 140 77
3 127 140 72
3 56 140 61
3 72 140 56
3 127 83 140
3 61 63 117
3 77 138 61
3 117 196 20
3 196 117 63
3 20 196 19
3 117 20 21
3 56 22 72
3 56 21 22
3 22 23 72
3 127 72 123
3 21 56 117
3 63 142 196
3 123 72 23
3 14 15 130
3 127 81 83
3 90 192 171
3 192 90 85
3 158 171 145
3 90 171 69
3 69 158 76
3 158 69 171
3 107 76 158
3 69 76 73
3 171 192 105
3 90 69 166
3 105 141 191
3 105 192 59
3 58 65 157
3 105 191 145
3 145 157 197
3 157 145 191
3 197 157 65
3 145 197 158
3 135 157 191
3 105 145 171
3 59 141 105
3 107 158 197
3 152 107 71
3 107 152 76
3 122 71 106
3 152 71 86
3 86 122 35
3 122 86 71
3 35 122 34
3 86 35 36
3 71 107 155
3 152 86 167
3 155 65 163
3 155 107 197
3 136 163 184
3 155 163 106
3 34 106 33
3 34 122 106
3 33 136 32
3 136 33 106
3 106 163 136
3 184 163 65
3 106 71 155
3 197 65 155
3 191 141 81
3 76 152 193
3 81 139 135
3 81 127 139
3 135 139 168
3 58 157 135
3 58 168 133
3 168 58 135
3 62 133 168
3 58 133 184
3 168 139 143
3 184 65 58
3 123 24 143
3 24 123 23
3 143 24 25
3 143 62 168
3 62 25 26
3 25 62 143
3 133 62 154
3 143 139 123
3 141 83 81
3 27 62 26
3 184 169 57
3 184 133 169
3 57 169 79
3 57 32 136
3 57 31 32
3 31 57 79
3 31 79 30
3 169 104 79
3 136 184 57
3 154 27 28
3 27 154 62
3 154 28 104
3 79 29 30
3 79 104 29
3 29 2 30
3 104 28 29
3 104 169 154
3 133 154 169
3 135 191 81
3 123 139 127
3 85 90 144
POINT_DATA 200
SCALARS U float 1
LOOKUP_TABLE default
-2.382204
92.049244
24.541817
-24.653122
106.554741
-77.358361
302.663303
-214.260563
402.121855
-90.475930
159.587743
307.012696
-130.654094
466.807281
24.245940
193.467104
345.980047
340.879801
240.164252
-77.795581
683.121264
-412.624474
673.665799
-184.709861
264.815704
126.422421
45.381686
152.535101
34.827295
100.865484
81.588739
-21.310914
118.607691
-128.805291
208.128826
-228.004651
189.433086
-143.893221
-5.975715
22.703181
-153.696009
47.400656
-140.332706
-134.938023
40.332893
-218.253018
204.429711
-356.074645
298.344694
-274.565420
102.447711
23.855176
-124.934679
160.498499
-97.315198
84.907732
520.549903
65.359208
84.969626
-337.535849
189.337490
-283.264884
382.034049
773.733630
344.551229
20.463070
477.033667
-312.282367
116.241342
27.943919
300.641372
-167.657852
176.232999
208.053540
-159.314197
47.735737
154.496896
353.784181
-303.291947
188.693346
368.088334
561.854946
78.774262
-233.972977
2.885992
-209.639941
155.577974
911.367575
-313.542415
6.380667
711.384541
512.358522
625.500587
388.052948
208.669971
332.731765
-146.343007
134.118848
-297.778902
-80.130141
156.056141
359.929945
-188.389651
-100.140952
243.045055
569.891587
146.978922
-153.551856
-213.236775
-208.108085
639.778086
-154.324763
105.257994
286.151222
-17.333368
859.616816
158.760786
553.118924
-383.774918
-154.883326
-184.476843
347.431260
-131.760483
662.672681
6.595389
648.908622
156.784638
-55.164267
-175.550251
252.637413
285.883248
173.277052
635.355924
95.938684
-338.357995
-126.922256
70.764527
654.540296
161.944892
159.791637
665.379640
216.958015
-17.789948
68.907217
-76.386014
-49.576989
-37.005687
8.928044
531.806820
-276.471897
34.966734
277.275372
264.519723
-350.132955
118.182540
269.776951
504.388098
482.796000
253.618576
-135.194551
392.771262
159.861669
643.507083
-8.273288
801.635677
454.730547
-324.133170
-60.290922
266.466007
71.681980
498.065148
-228.913436
-126.774285
-250.651505
-34.766840
-160.851291
70.993809
324.772625
217.758051
-48.492034
249.559721
11.271999
-142.349631
-55.289014
130.877828
437.891777
-488.827094
4.045137
161.562803
-97.056143
-306.586406
1.850057
38.001813
-230.628698
326.877876
60.248290
442.405278
19.522740
315.200053
31.088755
