# vtk DataFile Version 2.0
patchtest_tri3_mix
ASCII
DATASET POLYDATA
POINTS 114 float
0.000000 0.000000 0.000000
1.000000 0.000000 0.000000
1.000000 1.000000 0.000000
0.000000 1.000000 0.000000
0.111111 0.000000 0.000000
0.222222 0.000000 0.000000
0.333333 0.000000 0.000000
0.444444 0.000000 0.000000
0.555556 0.000000 0.000000
0.666667 0.000000 0.000000
0.777778 0.000000 0.000000
0.888889 0.000000 0.000000
1.000000 0.111111 0.000000
1.000000 0.222222 0.000000
1.000000 0.333333 0.000000
1.000000 0.444444 0.000000
1.000000 0.555556 0.000000
1.000000 0.666667 0.000000
1.000000 0.777778 0.000000
1.000000 0.888889 0.000000
0.888889 1.000000 0.000000
0.777778 1.000000 0.000000
0.666667 1.000000 0.000000
0.555556 1.000000 0.000000
0.444444 1.000000 0.000000
0.333333 1.000000 0.000000
0.222222 1.000000 0.000000
0.111111 1.000000 0.000000
0.000000 0.888889 0.000000
0.000000 0.777778 0.000000
0.000000 0.666667 0.000000
0.000000 0.555556 0.000000
0.000000 0.444444 0.000000
0.000000 0.333333 0.000000
0.000000 0.222222 0.000000
0.000000 0.111111 0.000000
0.918177 0.089469 0.000000
0.712321 0.298800 0.000000
0.170969 0.258664 0.000000
0.482366 0.466832 0.000000
0.442270 0.822308 0.000000
0.103623 0.728562 0.000000
0.375769 0.456160 0.000000
0.271911 0.265425 0.000000
0.535281 0.379410 0.000000
0.817977 0.691542 0.000000
0.904885 0.518354 0.000000
0.769916 0.187020 0.000000
0.091043 0.836612 0.000000
0.715698 0.420516 0.000000
0.809166 0.472783 0.000000
0.609042 0.096311 0.000000
0.807431 0.580996 0.000000
0.386852 0.910006 0.000000
0.713662 0.637526 0.000000
0.294764 0.540784 0.000000
0.804296 0.811016 0.000000
0.199084 0.568632 0.000000
0.095123 0.176131 0.000000
0.381932 0.271627 0.000000
0.441118 0.183859 0.000000
0.434339 0.645856 0.000000
0.316884 0.358303 0.000000
0.706382 0.524334 0.000000
0.634691 0.380980 0.000000
0.427686 0.367820 0.000000
0.273762 0.447167 0.000000
0.088360 0.290048 0.000000
0.882993 0.887433 0.000000
0.098910 0.393971 0.000000
0.543104 0.659551 0.000000
0.495964 0.739504 0.000000
0.386632 0.090978 0.000000
0.620063 0.591424 0.000000
0.747287 0.903552 0.000000
0.822035 0.098188 0.000000
0.893159 0.187981 0.000000
0.814497 0.265172 0.000000
0.400535 0.553824 0.000000
0.327146 0.177804 0.000000
0.729884 0.740137 0.000000
0.314177 0.638948 0.000000
0.552560 0.188172 0.000000
0.267760 0.901957 0.000000
0.567117 0.809791 0.000000
0.493034 0.280155 0.000000
0.383071 0.731224 0.000000
0.620268 0.907850 0.000000
0.183325 0.466026 0.000000
0.902968 0.405099 0.000000
0.212545 0.169995 0.000000
0.902620 0.758657 0.000000
0.327010 0.823175 0.000000
0.678365 0.822272 0.000000
0.601524 0.284278 0.000000
0.498792 0.093049 0.000000
0.512579 0.561539 0.000000
0.202155 0.357250 0.000000
0.505722 0.903745 0.000000
0.093286 0.508464 0.000000
0.198679 0.674197 0.000000
0.599007 0.481255 0.000000
0.146991 0.088977 0.000000
0.906543 0.632594 0.000000
0.198345 0.803147 0.000000
0.907748 0.296957 0.000000
0.805164 0.364235 0.000000
0.099236 0.616869 0.000000
0.158726 0.908743 0.000000
0.625906 0.715737 0.000000
0.664902 0.195710 0.000000
0.271191 0.088380 0.000000
0.275528 0.738223 0.000000
0.715304 0.094587 0.000000
POLYGONS 190 760
3 35 0 4
3 34 35 58
3 102 58 35
3 90 102 111
3 34 58 67
3 90 58 102
3 102 4 5
3 102 35 4
3 38 58 90
3 32 33 69
3 67 33 34
3 69 33 67
3 97 69 67
3 43 97 38
3 32 69 99
3 88 69 97
3 97 66 88
3 97 67 38
3 67 58 38
3 99 69 88
3 38 90 43
3 111 72 79
3 6 111 5
3 79 43 90
3 79 90 111
3 6 7 72
3 72 60 79
3 95 60 72
3 60 82 85
3 6 72 111
3 79 60 59
3 62 66 97
3 62 43 59
3 66 62 42
3 97 43 62
3 59 85 65
3 85 59 60
3 39 42 65
3 42 62 65
3 39 65 44
3 65 62 59
3 43 79 59
3 88 66 55
3 95 72 7
3 102 5 111
3 55 66 42
3 30 31 107
3 99 31 32
3 107 31 99
3 107 57 100
3 57 107 99
3 41 100 104
3 100 41 107
3 100 112 104
3 107 41 30
3 88 57 99
3 30 41 29
3 28 29 48
3 3 28 27
3 48 104 108
3 48 29 41
3 27 108 26
3 27 28 108
3 104 83 108
3 108 28 48
3 41 104 48
3 100 57 81
3 100 81 112
3 104 112 92
3 81 55 78
3 112 81 86
3 61 78 96
3 78 55 42
3 86 61 71
3 86 81 61
3 61 70 71
3 61 81 78
3 88 55 57
3 112 86 92
3 25 83 53
3 83 104 92
3 25 26 83
3 83 92 53
3 26 108 83
3 98 53 40
3 40 92 86
3 53 24 25
3 98 24 53
3 40 71 84
3 40 53 92
3 86 71 40
3 39 96 78
3 57 55 81
3 39 78 42
3 44 65 85
3 95 8 51
3 8 95 7
3 51 8 9
3 82 95 51
3 9 10 113
3 51 113 110
3 75 47 113
3 113 10 75
3 9 113 51
3 47 110 113
3 85 94 44
3 85 82 94
3 94 82 110
3 44 94 64
3 37 64 94
3 37 110 47
3 44 64 101
3 49 64 37
3 49 37 106
3 37 94 110
3 82 51 110
3 49 101 64
3 37 47 77
3 101 39 44
3 76 75 36
3 11 75 10
3 36 75 11
3 76 77 47
3 36 1 12
3 1 36 11
3 13 76 12
3 12 76 36
3 76 13 105
3 50 106 89
3 106 37 77
3 105 106 77
3 106 50 49
3 105 14 89
3 14 105 13
3 50 89 46
3 15 89 14
3 105 89 106
3 77 76 105
3 46 89 15
3 47 75 76
3 63 49 50
3 70 96 73
3 96 39 101
3 73 96 101
3 71 70 109
3 73 63 54
3 63 73 101
3 109 54 80
3 54 109 73
3 54 45 80
3 73 109 70
3 49 63 101
3 109 84 71
3 23 98 87
3 98 40 84
3 87 98 84
3 98 23 24
3 74 87 93
3 93 87 84
3 87 22 23
3 74 22 87
3 93 80 56
3 84 109 93
3 109 80 93
3 54 63 52
3 61 96 70
3 45 103 91
3 103 45 52
3 45 91 56
3 56 80 45
3 46 16 103
3 16 46 15
3 103 17 91
3 17 103 16
3 46 103 52
3 63 50 52
3 91 17 18
3 56 68 74
3 56 91 68
3 74 21 22
3 21 74 68
3 68 20 21
3 74 93 56
3 19 20 68
3 2 20 19
3 19 68 18
3 91 18 68
3 45 54 52
3 46 52 50
3 95 82 60
POINT_DATA 114
SCALARS U float 1
LOOKUP_TABLE default
-0.003238
0.999197
3.998067
1.004957
0.012048
0.057029
0.109325
0.196845
0.309191
0.443951
0.602970
0.788529
1.230022
1.494440
1.771881
2.084922
2.414169
2.777929
3.158707
3.565495
3.564835
3.157145
2.789818
2.402159
2.106245
1.772606
1.494375
1.235734
0.788196
0.604957
0.435090
0.316273
0.184329
0.117877
0.044466
0.013936
1.013717
1.019070
0.186929
0.897679
1.594230
0.687032
0.692190
0.294687
0.832587
2.276013
2.019793
0.914411
0.859721
1.285795
1.643357
0.498748
1.926333
1.696063
1.821780
0.695154
2.605343
0.585803
0.070341
0.426346
0.391052
1.161348
0.453550
1.512665
1.032919
0.634704
0.517654
0.146677
3.131504
0.236311
1.448882
1.528239
0.228662
1.466897
2.731609
0.844526
1.165451
1.165434
0.917398
0.253503
2.166649
0.904892
0.546015
1.367603
1.897700
0.598545
1.251746
2.335916
0.424444
1.705086
0.141542
2.759732
1.320163
2.247460
0.786198
0.351874
1.151926
0.309752
1.991015
0.359230
0.765539
1.168693
0.063383
2.365926
1.003777
1.446575
1.367010
0.508646
1.142241
1.799475
0.738740
0.138588
1.024153
0.654805
