# vtk DataFile Version 2.0
patchtest_tri3_mix
ASCII
DATASET POLYDATA
POINTS 220 float
0.000000 0.000000 0.000000
1.000000 0.000000 0.000000
1.000000 1.000000 0.000000
0.000000 1.000000 0.000000
0.071429 0.000000 0.000000
0.142857 0.000000 0.000000
0.214286 0.000000 0.000000
0.285714 0.000000 0.000000
0.357143 0.000000 0.000000
0.428571 0.000000 0.000000
0.500000 0.000000 0.000000
0.571429 0.000000 0.000000
0.642857 0.000000 0.000000
0.714286 0.000000 0.000000
0.785714 0.000000 0.000000
0.857143 0.000000 0.000000
0.928571 0.000000 0.000000
1.000000 0.071429 0.000000
1.000000 0.142857 0.000000
1.000000 0.214286 0.000000
1.000000 0.285714 0.000000
1.000000 0.357143 0.000000
1.000000 0.428571 0.000000
1.000000 0.500000 0.000000
1.000000 0.571429 0.000000
1.000000 0.642857 0.000000
1.000000 0.714286 0.000000
1.000000 0.785714 0.000000
1.000000 0.857143 0.000000
1.000000 0.928571 0.000000
0.928571 1.000000 0.000000
0.857143 1.000000 0.000000
0.785714 1.000000 0.000000
0.714286 1.000000 0.000000
0.642857 1.000000 0.000000
0.571429 1.000000 0.000000
0.500000 1.000000 0.000000
0.428571 1.000000 0.000000
0.357143 1.000000 0.000000
0.285714 1.000000 0.000000
0.214286 1.000000 0.000000
0.142857 1.000000 0.000000
0.071429 1.000000 0.000000
0.000000 0.928571 0.000000
0.000000 0.857143 0.000000
0.000000 0.785714 0.000000
0.000000 0.714286 0.000000
0.000000 0.642857 0.000000
0.000000 0.571429 0.000000
0.000000 0.500000 0.000000
0.000000 0.428571 0.000000
0.000000 0.357143 0.000000
0.000000 0.285714 0.000000
0.000000 0.214286 0.000000
0.000000 0.142857 0.000000
0.000000 0.071429 0.000000
0.856544 0.424043 0.000000
0.786829 0.141620 0.000000
0.715428 0.069958 0.000000
0.709150 0.645815 0.000000
0.491969 0.712780 0.000000
0.139627 0.841149 0.000000
0.713769 0.423636 0.000000
0.139836 0.673273 0.000000
0.638819 0.933533 0.000000
0.857884 0.141403 0.000000
0.715358 0.280327 0.000000
0.572565 0.138028 0.000000
0.150929 0.923698 0.000000
0.426221 0.278175 0.000000
0.930446 0.930467 0.000000
0.929443 0.800813 0.000000
0.282089 0.348007 0.000000
0.475915 0.930406 0.000000
0.071130 0.220437 0.000000
0.572002 0.206114 0.000000
0.420931 0.656768 0.000000
0.141712 0.341316 0.000000
0.283644 0.197002 0.000000
0.350055 0.631550 0.000000
0.635837 0.667033 0.000000
0.071622 0.465226 0.000000
0.427819 0.206182 0.000000
0.928943 0.211930 0.000000
0.141635 0.257773 0.000000
0.140000 0.757209 0.000000
0.280845 0.509733 0.000000
0.493779 0.558158 0.000000
0.498234 0.271343 0.000000
0.717119 0.788811 0.000000
0.141446 0.171938 0.000000
0.854637 0.565778 0.000000
0.492252 0.635428 0.000000
0.428715 0.136614 0.000000
0.928265 0.422693 0.000000
0.357639 0.073281 0.000000
0.766938 0.857761 0.000000
0.568025 0.803567 0.000000
0.644207 0.138278 0.000000
0.927735 0.736191 0.000000
0.141655 0.085420 0.000000
0.284480 0.129732 0.000000
0.714799 0.930512 0.000000
0.637394 0.731235 0.000000
0.069925 0.709114 0.000000
0.417478 0.793487 0.000000
0.349544 0.711061 0.000000
0.494470 0.482461 0.000000
0.565951 0.599092 0.000000
0.499726 0.203920 0.000000
0.789285 0.784299 0.000000
0.285482 0.066315 0.000000
0.420750 0.726490 0.000000
0.209831 0.794044 0.000000
0.928599 0.352698 0.000000
0.355479 0.226321 0.000000
0.211027 0.467026 0.000000
0.845241 0.856340 0.000000
0.075866 0.930155 0.000000
0.564105 0.667568 0.000000
0.715597 0.210019 0.000000
0.921938 0.863231 0.000000
0.495302 0.409967 0.000000
0.070431 0.629002 0.000000
0.071244 0.300979 0.000000
0.500626 0.069214 0.000000
0.360790 0.860048 0.000000
0.500597 0.137258 0.000000
0.928987 0.141316 0.000000
0.786751 0.212622 0.000000
0.642311 0.340463 0.000000
0.784964 0.426386 0.000000
0.350821 0.550747 0.000000
0.070007 0.786605 0.000000
0.856036 0.494641 0.000000
0.567177 0.532705 0.000000
0.212774 0.067776 0.000000
0.643921 0.069182 0.000000
0.858858 0.929062 0.000000
0.786659 0.070756 0.000000
0.640825 0.404935 0.000000
0.070932 0.068911 0.000000
0.277559 0.757855 0.000000
0.518585 0.861685 0.000000
0.424894 0.352643 0.000000
0.927361 0.559478 0.000000
0.787769 0.928764 0.000000
0.564509 0.737150 0.000000
0.644020 0.207369 0.000000
0.928822 0.282415 0.000000
0.785882 0.355089 0.000000
0.210612 0.549434 0.000000
0.212331 0.868022 0.000000
0.857583 0.282803 0.000000
0.209100 0.713312 0.000000
0.643298 0.275028 0.000000
0.569260 0.338951 0.000000
0.141370 0.424446 0.000000
0.211701 0.301668 0.000000
0.686799 0.862221 0.000000
0.567735 0.404250 0.000000
0.070291 0.861141 0.000000
0.211998 0.140943 0.000000
0.346319 0.786481 0.000000
0.496992 0.339953 0.000000
0.715654 0.139970 0.000000
0.780184 0.641110 0.000000
0.851236 0.637608 0.000000
0.393338 0.930049 0.000000
0.567465 0.468323 0.000000
0.925877 0.621612 0.000000
0.637652 0.601035 0.000000
0.422738 0.507184 0.000000
0.713715 0.497139 0.000000
0.924802 0.678542 0.000000
0.281624 0.428280 0.000000
0.211591 0.219766 0.000000
0.280128 0.591844 0.000000
0.490913 0.787836 0.000000
0.423342 0.429678 0.000000
0.605454 0.867940 0.000000
0.857778 0.070680 0.000000
0.780761 0.712822 0.000000
0.572287 0.068978 0.000000
0.309315 0.923231 0.000000
0.421708 0.583168 0.000000
0.712278 0.571548 0.000000
0.071756 0.382599 0.000000
0.570630 0.272800 0.000000
0.928944 0.070641 0.000000
0.709865 0.718605 0.000000
0.786466 0.283789 0.000000
0.140809 0.590140 0.000000
0.784629 0.497719 0.000000
0.233650 0.931813 0.000000
0.851807 0.710478 0.000000
0.282526 0.843463 0.000000
0.351749 0.469570 0.000000
0.439886 0.861397 0.000000
0.070902 0.142243 0.000000
0.071337 0.547691 0.000000
0.353802 0.306452 0.000000
0.557288 0.930308 0.000000
0.282865 0.270039 0.000000
0.279733 0.674812 0.000000
0.857805 0.212120 0.000000
0.639851 0.535320 0.000000
0.640293 0.469956 0.000000
0.642784 0.796339 0.000000
0.927947 0.492328 0.000000
0.859195 0.783647 0.000000
0.356863 0.148431 0.000000
0.428823 0.068254 0.000000
0.352811 0.387696 0.000000
0.211224 0.384605 0.000000
0.141143 0.507283 0.000000
0.783224 0.569157 0.000000
0.714843 0.351354 0.000000
0.857166 0.353442 0.000000
0.210119 0.631796 0.000000
POLYGONS 382 1528
3 0 141 55
3 141 0 4
3 55 141 199
3 54 199 53
3 199 54 55
3 74 53 199
3 141 100 199
3 141 5 100
3 136 5 6
3 100 5 136
3 90 100 162
3 90 199 100
3 203 158 176
3 162 176 90
3 100 136 162
3 74 199 90
3 78 176 162
3 141 4 5
3 84 90 176
3 52 74 124
3 74 52 53
3 187 51 124
3 52 124 51
3 81 50 187
3 200 49 81
3 81 49 50
3 187 50 51
3 124 74 84
3 84 158 77
3 158 84 176
3 77 158 214
3 77 187 124
3 81 157 215
3 187 77 157
3 175 116 214
3 214 116 157
3 77 214 157
3 157 81 187
3 72 214 158
3 77 124 84
3 74 90 84
3 157 116 215
3 101 162 136
3 6 7 111
3 7 8 111
3 78 101 211
3 78 162 101
3 101 95 211
3 111 95 101
3 136 111 101
3 115 78 211
3 111 8 95
3 78 203 176
3 9 10 212
3 125 93 212
3 212 95 8
3 93 211 95
3 211 93 82
3 93 109 82
3 127 109 93
3 95 212 93
3 82 109 88
3 88 109 75
3 212 8 9
3 115 211 82
3 203 115 201
3 115 203 78
3 213 201 144
3 203 201 72
3 175 72 213
3 175 214 72
3 179 197 213
3 213 197 175
3 72 201 213
3 116 175 86
3 69 201 115
3 72 158 203
3 69 88 164
3 69 115 82
3 164 160 122
3 69 164 144
3 179 144 122
3 179 213 144
3 169 107 122
3 122 107 179
3 144 164 122
3 197 179 172
3 87 107 135
3 144 201 69
3 82 88 69
3 197 86 175
3 88 156 164
3 136 6 111
3 107 172 179
3 48 200 123
3 48 49 200
3 104 123 63
3 48 123 47
3 47 104 46
3 104 47 123
3 133 46 104
3 123 200 192
3 192 215 151
3 192 63 123
3 215 116 151
3 192 151 219
3 63 85 104
3 85 63 154
3 142 113 154
3 219 154 63
3 63 192 219
3 85 154 113
3 154 219 204
3 192 200 215
3 81 215 200
3 133 104 85
3 45 133 44
3 133 45 46
3 44 133 161
3 3 43 42
3 43 118 42
3 161 118 43
3 43 44 161
3 161 133 61
3 61 113 152
3 61 133 85
3 196 152 113
3 61 152 68
3 118 41 42
3 41 118 68
3 68 40 41
3 194 40 68
3 161 68 118
3 194 68 152
3 68 161 61
3 85 113 61
3 177 219 151
3 177 86 132
3 177 204 219
3 86 197 132
3 177 132 79
3 142 204 106
3 142 154 204
3 76 106 79
3 79 106 204
3 204 177 79
3 163 142 106
3 79 132 185
3 113 142 196
3 185 172 87
3 172 185 132
3 87 172 107
3 185 87 92
3 112 76 60
3 76 112 106
3 119 60 92
3 92 60 76
3 76 185 92
3 163 106 112
3 178 60 147
3 185 76 79
3 116 86 151
3 178 112 60
3 196 163 126
3 163 196 142
3 126 163 105
3 196 126 184
3 194 39 40
3 39 194 184
3 184 38 39
3 168 38 184
3 194 196 184
3 184 126 168
3 194 152 196
3 105 178 198
3 105 163 112
3 73 198 143
3 198 168 126
3 168 37 38
3 37 168 73
3 73 36 37
3 202 36 73
3 168 198 73
3 178 143 198
3 198 126 105
3 112 178 105
3 87 108 92
3 177 151 86
3 172 132 197
3 125 212 10
3 125 11 183
3 11 125 10
3 183 11 12
3 125 183 127
3 67 75 109
3 67 127 183
3 75 67 98
3 75 188 88
3 183 137 67
3 125 127 93
3 12 13 137
3 13 14 58
3 98 67 137
3 98 137 58
3 58 165 98
3 139 165 58
3 137 13 58
3 75 98 148
3 165 57 120
3 137 183 12
3 148 98 165
3 130 156 155
3 160 164 156
3 155 156 188
3 156 130 140
3 169 160 140
3 169 122 160
3 62 207 140
3 140 207 169
3 160 156 140
3 135 169 207
3 140 130 217
3 88 188 156
3 155 148 120
3 148 155 188
3 120 148 165
3 155 120 66
3 131 62 150
3 140 217 62
3 62 217 150
3 66 191 217
3 66 217 130
3 173 207 62
3 129 66 120
3 130 155 66
3 188 75 148
3 131 173 62
3 14 139 58
3 169 135 107
3 139 15 181
3 15 139 14
3 181 15 16
3 139 181 65
3 129 57 205
3 129 120 57
3 205 65 83
3 65 205 57
3 57 139 65
3 153 129 205
3 181 189 65
3 191 66 129
3 16 1 189
3 189 1 17
3 189 128 65
3 83 128 18
3 83 65 128
3 17 18 128
3 128 189 17
3 83 18 19
3 181 16 189
3 149 205 83
3 191 153 218
3 191 129 153
3 94 56 218
3 191 218 150
3 56 131 150
3 131 56 134
3 56 209 134
3 56 150 218
3 56 94 209
3 134 209 145
3 218 153 114
3 150 217 191
3 149 19 20
3 149 153 205
3 149 20 114
3 94 114 21
3 94 218 114
3 21 22 94
3 114 20 21
3 94 22 209
3 114 153 149
3 19 149 83
3 209 22 23
3 165 139 57
3 131 134 193
3 171 108 206
3 108 119 92
3 206 108 135
3 108 171 80
3 119 80 103
3 80 119 108
3 190 103 80
3 119 103 147
3 80 171 59
3 119 147 60
3 206 173 186
3 206 135 207
3 166 186 216
3 186 59 171
3 190 80 59
3 190 59 182
3 166 182 59
3 182 166 195
3 59 186 166
3 103 190 89
3 186 173 216
3 171 206 186
3 207 173 206
3 89 190 182
3 178 97 143
3 178 147 97
3 180 97 208
3 143 97 180
3 35 36 202
3 35 202 64
3 180 64 202
3 159 64 180
3 202 143 180
3 35 64 34
3 208 97 147
3 202 73 143
3 159 208 89
3 208 147 103
3 110 96 89
3 159 89 96
3 64 102 34
3 64 159 102
3 32 33 102
3 102 33 34
3 159 96 102
3 102 96 146
3 159 180 208
3 103 89 208
3 89 182 110
3 87 135 108
3 216 193 91
3 193 216 173
3 193 134 91
3 216 91 167
3 195 166 167
3 195 167 174
3 99 195 174
3 195 99 210
3 174 167 170
3 195 110 182
3 167 91 170
3 110 195 210
3 145 23 24
3 91 134 145
3 145 24 170
3 25 174 170
3 25 26 174
3 26 99 174
3 170 24 25
3 210 99 71
3 145 170 91
3 209 23 145
3 27 99 26
3 117 71 121
3 117 110 210
3 117 121 138
3 117 146 96
3 32 146 31
3 102 146 32
3 30 31 138
3 138 31 146
3 146 117 138
3 138 121 70
3 110 117 96
3 71 27 28
3 117 210 71
3 28 70 121
3 30 70 2
3 30 138 70
3 29 2 70
3 70 28 29
3 121 71 28
3 99 27 71
3 167 166 216
3 173 131 193
3 67 109 127
POINT_DATA 220
SCALARS U float 1
LOOKUP_TABLE default
66.427205
29.911300
96.057215
-12.490283
80.948711
75.420609
48.563606
108.358250
30.726357
44.563866
162.548218
-136.426343
244.286745
-90.337937
57.904875
56.927002
-21.647968
-42.276604
152.822407
-173.749680
269.779564
-106.606179
60.770415
307.312832
-345.043032
644.945497
-387.060178
514.401027
-83.988558
298.218468
290.974505
1.576434
345.610356
-51.624729
267.052339
73.257236
19.962142
253.700978
-131.125752
220.561085
-70.062517
65.436766
-14.662065
-28.608019
11.534539
-44.350210
25.155714
-16.132051
-3.014262
38.493166
-19.229362
60.023848
11.713088
53.811072
46.690497
70.585468
-111.261000
308.864398
980.423904
269.257734
37.534105
38.402186
-54.141652
16.096336
395.575884
220.184963
204.596227
336.143367
118.596243
416.573948
714.185239
211.190114
335.810352
136.773093
181.497473
356.524016
163.979615
71.240398
236.765481
-122.841691
-340.872115
55.401012
68.702207
-170.106518
-2.280486
74.579727
81.923558
-314.010026
-172.376079
69.681086
57.479635
-514.493963
-63.567422
462.973130
588.988687
13.575753
197.036688
353.634602
73.236602
841.171174
-20.196155
-4.869416
244.631687
275.726488
77.736578
382.153701
33.286854
260.832647
524.548843
33.283845
754.186207
208.202399
212.251207
46.927855
-258.046451
68.683258
201.128207
-218.637548
-57.165538
212.731593
404.969810
418.628770
-356.905594
-38.263065
96.360228
-331.782736
-186.322135
-412.540646
215.388260
-335.449986
-462.480295
534.542300
-147.339360
-67.214384
630.412709
211.325876
312.439302
-803.123509
229.859009
-538.494482
-158.739476
300.965552
90.194941
-53.878104
332.479656
286.827523
687.839718
195.829781
-347.290005
433.627747
-277.894635
-26.526918
-90.500745
420.509649
46.286347
161.230650
511.558867
65.514444
179.951379
33.756215
398.652273
34.157550
138.254121
62.748173
-155.822150
7.972208
72.295040
610.494159
338.056813
240.675951
637.878236
691.153050
-17.182218
372.981828
-225.799479
99.173666
154.302557
283.289903
56.656583
438.306727
99.326510
402.483428
219.005820
925.390671
131.779962
659.116315
-45.417150
88.674781
254.453081
-71.914382
223.129250
171.526301
130.500796
-508.759941
99.333776
-305.789207
223.025538
191.663981
226.370351
132.961953
70.005048
7.655508
410.581205
-54.697385
166.792171
-111.083085
-526.982587
424.479751
337.481557
-97.145762
336.922025
-11.902022
376.559735
-253.841325
-71.807957
-13.421677
661.072675
597.376849
51.711684
-11.786496
