# vtk DataFile Version 2.0
patchtest_tri3_mix
ASCII
DATASET POLYDATA
POINTS 121 float
0.000000 0.000000 0.000000
1.000000 0.000000 0.000000
1.000000 1.000000 0.000000
0.000000 1.000000 0.000000
0.100000 0.000000 0.000000
0.200000 0.000000 0.000000
0.300000 0.000000 0.000000
0.400000 0.000000 0.000000
0.500000 0.000000 0.000000
0.600000 0.000000 0.000000
0.700000 0.000000 0.000000
0.800000 0.000000 0.000000
0.900000 0.000000 0.000000
1.000000 0.100000 0.000000
1.000000 0.200000 0.000000
1.000000 0.300000 0.000000
1.000000 0.400000 0.000000
1.000000 0.500000 0.000000
1.000000 0.600000 0.000000
1.000000 0.700000 0.000000
1.000000 0.800000 0.000000
1.000000 0.900000 0.000000
0.900000 1.000000 0.000000
0.800000 1.000000 0.000000
0.700000 1.000000 0.000000
0.600000 1.000000 0.000000
0.500000 1.000000 0.000000
0.400000 1.000000 0.000000
0.300000 1.000000 0.000000
0.200000 1.000000 0.000000
0.100000 1.000000 0.000000
0.000000 0.900000 0.000000
0.000000 0.800000 0.000000
0.000000 0.700000 0.000000
0.000000 0.600000 0.000000
0.000000 0.500000 0.000000
0.000000 0.400000 0.000000
0.000000 0.300000 0.000000
0.000000 0.200000 0.000000
0.000000 0.100000 0.000000
0.377600 0.468766 0.000000
0.297143 0.819198 0.000000
0.459148 0.901236 0.000000
0.284898 0.418267 0.000000
0.791409 0.693378 0.000000
0.489756 0.293548 0.000000
0.550062 0.539977 0.000000
0.437639 0.092368 0.000000
0.647634 0.518512 0.000000
0.098761 0.758677 0.000000
0.473358 0.719160 0.000000
0.287466 0.201921 0.000000
0.095150 0.326126 0.000000
0.255483 0.906978 0.000000
0.898380 0.637294 0.000000
0.910044 0.425086 0.000000
0.912103 0.831871 0.000000
0.595614 0.219478 0.000000
0.907434 0.534445 0.000000
0.160630 0.909173 0.000000
0.359572 0.903763 0.000000
0.098377 0.649968 0.000000
0.890954 0.331069 0.000000
0.570842 0.714246 0.000000
0.092972 0.216960 0.000000
0.193852 0.807893 0.000000
0.512013 0.811769 0.000000
0.289551 0.310506 0.000000
0.327163 0.097482 0.000000
0.383389 0.684613 0.000000
0.784436 0.379588 0.000000
0.734384 0.095763 0.000000
0.191896 0.273288 0.000000
0.818884 0.801455 0.000000
0.900271 0.733000 0.000000
0.391390 0.578235 0.000000
0.224371 0.090333 0.000000
0.635986 0.108107 0.000000
0.481969 0.396813 0.000000
0.809358 0.579636 0.000000
0.606313 0.623343 0.000000
0.740145 0.493773 0.000000
0.195195 0.700322 0.000000
0.829114 0.468635 0.000000
0.711798 0.606576 0.000000
0.290203 0.629815 0.000000
0.391386 0.180848 0.000000
0.468119 0.499709 0.000000
0.106378 0.103064 0.000000
0.088237 0.865859 0.000000
0.492233 0.194159 0.000000
0.096482 0.434360 0.000000
0.097218 0.541846 0.000000
0.399629 0.798197 0.000000
0.574362 0.438553 0.000000
0.722269 0.801829 0.000000
0.618163 0.806848 0.000000
0.689628 0.300689 0.000000
0.540031 0.102432 0.000000
0.680124 0.708686 0.000000
0.187844 0.174585 0.000000
0.292062 0.731293 0.000000
0.779408 0.900524 0.000000
0.672381 0.902390 0.000000
0.809368 0.180164 0.000000
0.901803 0.226684 0.000000
0.289300 0.527808 0.000000
0.677948 0.406650 0.000000
0.704549 0.197910 0.000000
0.831792 0.086472 0.000000
0.190942 0.376322 0.000000
0.389644 0.271539 0.000000
0.566001 0.904624 0.000000
0.913636 0.119135 0.000000
0.883617 0.913226 0.000000
0.385914 0.369011 0.000000
0.586276 0.332476 0.000000
0.192799 0.484281 0.000000
0.489555 0.621180 0.000000
0.193311 0.592000 0.000000
0.794533 0.277256 0.000000
POLYGONS 200 800
3 39 0 4
3 38 39 88
3 4 5 88
3 38 88 64
3 76 100 88
3 100 51 72
3 4 88 39
3 64 88 100
3 37 64 52
3 64 37 38
3 36 52 91
3 52 36 37
3 64 72 52
3 117 110 43
3 110 91 52
3 36 91 35
3 117 91 110
3 67 110 72
3 110 52 72
3 64 100 72
3 92 91 117
3 5 76 88
3 51 76 68
3 6 76 5
3 68 76 6
3 51 67 72
3 7 47 68
3 47 7 8
3 68 86 51
3 86 68 47
3 111 86 90
3 7 68 6
3 51 86 111
3 67 115 43
3 115 67 111
3 117 43 106
3 40 43 115
3 115 78 40
3 43 110 67
3 45 78 115
3 90 45 111
3 118 87 46
3 87 40 78
3 87 78 94
3 115 111 45
3 67 51 111
3 106 43 40
3 86 47 90
3 100 76 51
3 75 40 87
3 34 35 92
3 33 34 61
3 92 119 61
3 92 117 119
3 33 61 49
3 82 61 119
3 119 85 82
3 92 61 34
3 91 92 35
3 49 61 82
3 32 89 31
3 89 32 49
3 30 3 31
3 31 89 30
3 65 59 89
3 65 49 82
3 30 59 29
3 30 89 59
3 65 53 59
3 89 49 65
3 32 33 49
3 82 101 65
3 85 69 101
3 75 85 106
3 65 101 41
3 101 82 85
3 75 118 69
3 75 106 40
3 101 69 93
3 50 69 118
3 93 50 66
3 75 69 85
3 87 118 75
3 93 69 50
3 28 53 60
3 29 59 53
3 28 29 53
3 53 41 60
3 65 41 53
3 93 42 60
3 66 42 93
3 60 27 28
3 27 60 42
3 42 26 27
3 93 60 41
3 41 101 93
3 50 118 63
3 85 119 106
3 106 119 117
3 78 45 116
3 47 98 90
3 98 47 8
3 98 8 9
3 57 90 98
3 9 10 77
3 57 98 77
3 71 77 10
3 10 11 71
3 9 77 98
3 108 77 71
3 107 116 97
3 94 78 116
3 48 94 107
3 107 94 116
3 116 57 97
3 45 57 116
3 70 97 120
3 108 97 57
3 81 70 83
3 81 107 70
3 120 97 108
3 70 107 97
3 57 77 108
3 48 107 81
3 108 71 104
3 94 46 87
3 109 104 71
3 109 11 12
3 104 109 113
3 104 120 108
3 12 1 13
3 104 113 105
3 13 113 12
3 12 113 109
3 14 113 13
3 120 105 62
3 105 120 104
3 70 55 83
3 70 62 55
3 105 15 62
3 62 70 120
3 16 62 15
3 83 55 58
3 55 62 16
3 15 105 14
3 105 113 14
3 17 55 16
3 71 11 109
3 81 83 79
3 80 63 118
3 80 46 48
3 63 80 99
3 63 66 50
3 84 99 80
3 48 81 84
3 63 99 96
3 44 95 99
3 95 73 102
3 84 80 48
3 46 94 48
3 96 99 95
3 112 26 42
3 112 66 96
3 25 26 112
3 112 103 25
3 42 66 112
3 95 103 96
3 103 95 102
3 24 25 103
3 24 103 102
3 102 23 24
3 103 112 96
3 66 63 96
3 44 99 84
3 46 80 118
3 79 54 44
3 54 79 58
3 44 74 73
3 74 44 54
3 54 19 74
3 79 44 84
3 58 17 18
3 79 83 58
3 19 54 18
3 18 54 58
3 81 79 84
3 74 19 20
3 114 23 102
3 114 73 56
3 22 23 114
3 114 21 22
3 102 73 114
3 56 20 21
3 56 73 74
3 2 22 21
3 21 114 56
3 74 20 56
3 73 95 44
3 55 17 58
3 45 90 57
POINT_DATA 121
SCALARS U float 1
LOOKUP_TABLE default
-0.000331
1.008478
7.990349
1.009837
0.001401
0.007567
0.025612
0.060778
0.120840
0.214796
0.342120
0.503297
0.730911
1.337111
1.731135
2.203399
2.742720
3.377019
4.100873
4.913227
5.840312
6.850674
6.835399
5.821620
4.904049
4.087695
3.372044
2.741150
2.199307
1.719049
1.330985
0.739913
0.512139
0.344146
0.215062
0.125053
0.065776
0.025150
0.007148
0.001583
0.602414
1.390087
2.516628
0.349342
3.268380
0.483437
1.298361
0.142367
1.585088
0.634882
1.703115
0.114690
0.075838
1.574975
3.629913
2.381563
5.304325
0.537149
3.003389
1.219733
2.015751
0.419716
1.825651
2.114786
0.029148
1.002134
2.317039
0.216765
0.074081
1.215080
1.577558
0.572466
0.100601
4.247774
4.354386
0.909439
0.029914
0.408131
0.682880
2.677502
1.853753
1.882313
0.719108
2.186650
2.291414
0.778069
0.186813
0.909203
0.010513
0.880349
0.323931
0.152496
0.263433
1.706152
1.036192
3.538010
2.887822
0.968342
0.260979
2.677437
0.044140
1.076856
4.722707
3.895861
0.968500
1.446881
0.548119
1.276389
0.734883
0.773389
0.179444
0.284698
3.170738
1.109642
5.778513
0.429014
0.773247
0.308336
1.365327
0.483005
1.231869
