# vtk DataFile Version 2.0
patchtest_tri3_mix
ASCII
DATASET POLYDATA
POINTS 40 float
0.000000 0.000000 0.000000
1.000000 0.000000 0.000000
1.000000 1.000000 0.000000
0.000000 1.000000 0.000000
0.250000 0.000000 0.000000
0.500000 0.000000 0.000000
0.750000 0.000000 0.000000
1.000000 0.250000 0.000000
1.000000 0.500000 0.000000
1.000000 0.750000 0.000000
0.750000 1.000000 0.000000
0.500000 1.000000 0.000000
0.250000 1.000000 0.000000
0.000000 0.750000 0.000000
0.000000 0.500000 0.000000
0.000000 0.250000 0.000000
0.127807 0.386327 0.000000
0.439269 0.328754 0.000000
0.838981 0.320592 0.000000
0.546147 0.180937 0.000000
0.856219 0.858064 0.000000
0.299527 0.465508 0.000000
0.659637 0.569712 0.000000
0.350952 0.646900 0.000000
0.863731 0.644336 0.000000
0.223113 0.773154 0.000000
0.154210 0.599864 0.000000
0.805919 0.482307 0.000000
0.142623 0.142682 0.000000
0.721028 0.740281 0.000000
0.258011 0.276887 0.000000
0.364959 0.138240 0.000000
0.878343 0.127434 0.000000
0.487264 0.510151 0.000000
0.712901 0.187867 0.000000
0.613622 0.872940 0.000000
0.114535 0.886845 0.000000
0.636739 0.369562 0.000000
0.527803 0.706094 0.000000
0.394596 0.847764 0.000000
POLYGONS 62 248
3 0 4 28
3 15 28 16
3 28 15 0
3 30 16 28
3 15 16 14
3 28 4 31
3 17 31 19
3 5 31 4
3 30 17 21
3 17 30 31
3 21 17 33
3 30 21 16
3 17 37 33
3 31 30 28
3 16 21 26
3 14 26 13
3 14 16 26
3 13 36 3
3 25 36 13
3 3 36 12
3 13 26 25
3 39 23 38
3 23 25 26
3 25 39 12
3 39 25 23
3 12 39 11
3 25 12 36
3 23 33 38
3 26 21 23
3 33 23 21
3 19 31 5
3 19 6 34
3 6 19 5
3 27 37 18
3 34 37 19
3 34 18 37
3 37 27 22
3 34 6 32
3 22 33 37
3 32 1 7
3 1 32 6
3 18 7 8
3 7 18 32
3 18 8 27
3 32 18 34
3 27 8 24
3 38 22 29
3 38 33 22
3 35 11 39
3 35 38 29
3 35 29 20
3 11 35 10
3 22 24 29
3 39 38 35
3 24 9 20
3 9 24 8
3 10 20 2
3 10 35 20
3 2 20 9
3 20 29 24
3 22 27 24
3 17 19 37
POINT_DATA 40
SCALARS U float 1
LOOKUP_TABLE default
-0.002707
0.984447
3.997494
0.988194
0.052026
0.240415
0.554772
1.556248
2.244606
3.050624
3.049986
2.241024
1.553694
0.553732
0.241152
0.050713
0.256952
0.584936
1.337222
0.525665
2.934935
0.581145
1.506036
0.989652
2.272350
0.983484
0.563861
1.655030
0.077965
2.132240
0.283643
0.248750
1.005839
0.991438
0.805237
2.201617
1.002493
1.006165
1.517763
1.538156
