# vtk DataFile Version 2.0
patchtest_tri3_mix
ASCII
DATASET POLYDATA
POINTS 60 float
0.000000 0.000000 0.000000
1.000000 0.000000 0.000000
1.000000 1.000000 0.000000
0.000000 1.000000 0.000000
0.142857 0.000000 0.000000
0.285714 0.000000 0.000000
0.428571 0.000000 0.000000
0.571429 0.000000 0.000000
0.714286 0.000000 0.000000
0.857143 0.000000 0.000000
1.000000 0.142857 0.000000
1.000000 0.285714 0.000000
1.000000 0.428571 0.000000
1.000000 0.571429 0.000000
1.000000 0.714286 0.000000
1.000000 0.857143 0.000000
0.857143 1.000000 0.000000
0.714286 1.000000 0.000000
0.571429 1.000000 0.000000
0.428571 1.000000 0.000000
0.285714 1.000000 0.000000
0.142857 1.000000 0.000000
0.000000 0.857143 0.000000
0.000000 0.714286 0.000000
0.000000 0.571429 0.000000
0.000000 0.428571 0.000000
0.000000 0.285714 0.000000
0.000000 0.142857 0.000000
0.809671 0.277844 0.000000
0.564702 0.424553 0.000000
0.857226 0.139470 0.000000
0.145043 0.294113 0.000000
0.302928 0.286951 0.000000
0.121371 0.722354 0.000000
0.658055 0.565072 0.000000
0.468362 0.283685 0.000000
0.172779 0.859976 0.000000
0.699748 0.142379 0.000000
0.873026 0.414126 0.000000
0.266589 0.717415 0.000000
0.722787 0.420783 0.000000
0.339954 0.856878 0.000000
0.258496 0.434554 0.000000
0.408152 0.428006 0.000000
0.732255 0.707464 0.000000
0.577892 0.710088 0.000000
0.876219 0.705535 0.000000
0.828859 0.560020 0.000000
0.165085 0.580970 0.000000
0.420928 0.712951 0.000000
0.635555 0.282078 0.000000
0.663941 0.853632 0.000000
0.830934 0.852209 0.000000
0.535283 0.143446 0.000000
0.366848 0.145201 0.000000
0.501799 0.853768 0.000000
0.494292 0.568927 0.000000
0.190343 0.147556 0.000000
0.122520 0.439864 0.000000
0.331381 0.573444 0.000000
POLYGONS 90 360
3 0 4 27
3 31 27 57
3 25 26 58
3 58 31 42
3 31 58 26
3 26 27 31
3 25 58 24
3 27 4 57
3 57 5 54
3 5 57 4
3 35 54 53
3 6 54 5
3 57 54 32
3 42 32 43
3 42 31 32
3 56 43 29
3 35 43 32
3 32 54 35
3 42 43 59
3 54 6 53
3 32 31 57
3 58 42 48
3 23 24 33
3 24 58 48
3 33 24 48
3 3 22 21
3 22 36 21
3 33 36 22
3 22 23 33
3 33 48 39
3 39 59 49
3 39 36 33
3 55 41 49
3 56 49 59
3 42 59 48
3 39 49 41
3 36 20 21
3 20 36 41
3 41 19 20
3 55 19 41
3 36 39 41
3 49 56 45
3 39 48 59
3 43 56 59
3 43 35 29
3 7 8 37
3 28 50 37
3 7 37 53
3 56 29 34
3 35 50 29
3 50 40 29
3 28 40 50
3 53 37 50
3 34 29 40
3 37 8 30
3 7 53 6
3 30 28 37
3 30 9 1
3 1 10 30
3 30 10 11
3 28 38 40
3 38 28 11
3 11 12 38
3 28 30 11
3 40 38 47
3 30 8 9
3 12 13 38
3 45 34 44
3 45 56 34
3 44 34 47
3 45 44 51
3 55 18 19
3 18 55 51
3 51 17 18
3 52 17 51
3 55 45 51
3 51 44 52
3 55 49 45
3 46 52 44
3 46 47 13
3 13 14 46
3 47 38 13
3 46 14 15
3 52 16 17
3 16 52 15
3 15 2 16
3 52 46 15
3 46 44 47
3 34 40 47
3 35 53 50
POINT_DATA 60
SCALARS U float 1
LOOKUP_TABLE default
-0.001869
0.967614
7.978849
1.005901
0.002361
0.019056
0.082533
0.182454
0.380750
0.632961
1.496964
2.132496
2.907044
3.895238
5.028821
6.426835
6.379537
5.029400
3.871025
2.915817
2.119424
1.503719
0.637946
0.356705
0.200786
0.072982
0.037986
-0.000010
1.284460
0.969302
0.983255
0.089230
0.208222
0.608675
1.826982
0.427608
1.099483
0.600348
2.132505
0.958961
1.498995
1.709981
0.339780
0.586075
2.985440
2.134337
3.957638
2.673615
0.418537
1.458410
0.772899
3.484320
4.754025
0.312196
0.134644
2.486012
1.203420
0.038885
0.186916
0.743835
