# vtk DataFile Version 2.0
patchtest_tri3_mix
ASCII
DATASET POLYDATA
POINTS 114 float
0.000000 0.000000 0.000000
1.000000 0.000000 0.000000
1.000000 1.000000 0.000000
0.000000 1.000000 0.000000
0.111111 0.000000 0.000000
0.222222 0.000000 0.000000
0.333333 0.000000 0.000000
0.444444 0.000000 0.000000
0.555556 0.000000 0.000000
0.666667 0.000000 0.000000
0.777778 0.000000 0.000000
0.888889 0.000000 0.000000
1.000000 0.111111 0.000000
1.000000 0.222222 0.000000
1.000000 0.333333 0.000000
1.000000 0.444444 0.000000
1.000000 0.555556 0.000000
1.000000 0.666667 0.000000
1.000000 0.777778 0.000000
1.000000 0.888889 0.000000
0.888889 1.000000 0.000000
0.777778 1.000000 0.000000
0.666667 1.000000 0.000000
0.555556 1.000000 0.000000
0.444444 1.000000 0.000000
0.333333 1.000000 0.000000
0.222222 1.000000 0.000000
0.111111 1.000000 0.000000
0.000000 0.888889 0.000000
0.000000 0.777778 0.000000
0.000000 0.666667 0.000000
0.000000 0.555556 0.000000
0.000000 0.444444 0.000000
0.000000 0.333333 0.000000
0.000000 0.222222 0.000000
0.000000 0.111111 0.000000
0.918177 0.089469 0.000000
0.712321 0.298800 0.000000
0.170969 0.258664 0.000000
0.482366 0.466832 0.000000
0.442270 0.822308 0.000000
0.103623 0.728562 0.000000
0.375769 0.456160 0.000000
0.271911 0.265425 0.000000
0.535281 0.379410 0.000000
0.817977 0.691542 0.000000
0.904885 0.518354 0.000000
0.769916 0.187020 0.000000
0.091043 0.836612 0.000000
0.715698 0.420516 0.000000
0.809166 0.472783 0.000000
0.609042 0.096311 0.000000
0.807431 0.580996 0.000000
0.386852 0.910006 0.000000
0.713662 0.637526 0.000000
0.294764 0.540784 0.000000
0.804296 0.811016 0.000000
0.199084 0.568632 0.000000
0.095123 0.176131 0.000000
0.381932 0.271627 0.000000
0.441118 0.183859 0.000000
0.434339 0.645856 0.000000
0.316884 0.358303 0.000000
0.706382 0.524334 0.000000
0.634691 0.380980 0.000000
0.427686 0.367820 0.000000
0.273762 0.447167 0.000000
0.088360 0.290048 0.000000
0.882993 0.887433 0.000000
0.098910 0.393971 0.000000
0.543104 0.659551 0.000000
0.495964 0.739504 0.000000
0.386632 0.090978 0.000000
0.620063 0.591424 0.000000
0.747287 0.903552 0.000000
0.822035 0.098188 0.000000
0.893159 0.187981 0.000000
0.814497 0.265172 0.000000
0.400535 0.553824 0.000000
0.327146 0.177804 0.000000
0.729884 0.740137 0.000000
0.314177 0.638948 0.000000
0.552560 0.188172 0.000000
0.267760 0.901957 0.000000
0.567117 0.809791 0.000000
0.493034 0.280155 0.000000
0.383071 0.731224 0.000000
0.620268 0.907850 0.000000
0.183325 0.466026 0.000000
0.902968 0.405099 0.000000
0.212545 0.169995 0.000000
0.902620 0.758657 0.000000
0.327010 0.823175 0.000000
0.678365 0.822272 0.000000
0.601524 0.284278 0.000000
0.498792 0.093049 0.000000
0.512579 0.561539 0.000000
0.202155 0.357250 0.000000
0.505722 0.903745 0.000000
0.093286 0.508464 0.000000
0.198679 0.674197 0.000000
0.599007 0.481255 0.000000
0.146991 0.088977 0.000000
0.906543 0.632594 0.000000
0.198345 0.803147 0.000000
0.907748 0.296957 0.000000
0.805164 0.364235 0.000000
0.099236 0.616869 0.000000
0.158726 0.908743 0.000000
0.625906 0.715737 0.000000
0.664902 0.195710 0.000000
0.271191 0.088380 0.000000
0.275528 0.738223 0.000000
0.715304 0.094587 0.000000
POLYGONS 190 760
3 35 0 4
3 34 35 58
3 102 58 35
3 90 102 111
3 34 58 67
3 90 58 102
3 102 4 5
3 102 35 4
3 38 58 90
3 32 33 69
3 67 33 34
3 69 33 67
3 97 69 67
3 43 97 38
3 32 69 99
3 88 69 97
3 97 66 88
3 97 67 38
3 67 58 38
3 99 69 88
3 38 90 43
3 111 72 79
3 6 111 5
3 79 43 90
3 79 90 111
3 6 7 72
3 72 60 79
3 95 60 72
3 60 82 85
3 6 72 111
3 79 60 59
3 62 66 97
3 62 43 59
3 66 62 42
3 97 43 62
3 59 85 65
3 85 59 60
3 39 42 65
3 42 62 65
3 39 65 44
3 65 62 59
3 43 79 59
3 88 66 55
3 95 72 7
3 102 5 111
3 55 66 42
3 30 31 107
3 99 31 32
3 107 31 99
3 107 57 100
3 57 107 99
3 41 100 104
3 100 41 107
3 100 112 104
3 107 41 30
3 88 57 99
3 30 41 29
3 28 29 48
3 3 28 27
3 48 104 108
3 48 29 41
3 27 108 26
3 27 28 108
3 104 83 108
3 108 28 48
3 41 104 48
3 100 57 81
3 100 81 112
3 104 112 92
3 81 55 78
3 112 81 86
3 61 78 96
3 78 55 42
3 86 61 71
3 86 81 61
3 61 70 71
3 61 81 78
3 88 55 57
3 112 86 92
3 25 83 53
3 83 104 92
3 25 26 83
3 83 92 53
3 26 108 83
3 98 53 40
3 40 92 86
3 53 24 25
3 98 24 53
3 40 71 84
3 40 53 92
3 86 71 40
3 39 96 78
3 57 55 81
3 39 78 42
3 44 65 85
3 95 8 51
3 8 95 7
3 51 8 9
3 82 95 51
3 9 10 113
3 51 113 110
3 75 47 113
3 113 10 75
3 9 113 51
3 47 110 113
3 85 94 44
3 85 82 94
3 94 82 110
3 44 94 64
3 37 64 94
3 37 110 47
3 44 64 101
3 49 64 37
3 49 37 106
3 37 94 110
3 82 51 110
3 49 101 64
3 37 47 77
3 101 39 44
3 76 75 36
3 11 75 10
3 36 75 11
3 76 77 47
3 36 1 12
3 1 36 11
3 13 76 12
3 12 76 36
3 76 13 105
3 50 106 89
3 106 37 77
3 105 106 77
3 106 50 49
3 105 14 89
3 14 105 13
3 50 89 46
3 15 89 14
3 105 89 106
3 77 76 105
3 46 89 15
3 47 75 76
3 63 49 50
3 70 96 73
3 96 39 101
3 73 96 101
3 71 70 109
3 73 63 54
3 63 73 101
3 109 54 80
3 54 109 73
3 54 45 80
3 73 109 70
3 49 63 101
3 109 84 71
3 23 98 87
3 98 40 84
3 87 98 84
3 98 23 24
3 74 87 93
3 93 87 84
3 87 22 23
3 74 22 87
3 93 80 56
3 84 109 93
3 109 80 93
3 54 63 52
3 61 96 70
3 45 103 91
3 103 45 52
3 45 91 56
3 56 80 45
3 46 16 103
3 16 46 15
3 103 17 91
3 17 103 16
3 46 103 52
3 63 50 52
3 91 17 18
3 56 68 74
3 56 91 68
3 74 21 22
3 21 74 68
3 68 20 21
3 74 93 56
3 19 20 68
3 2 20 19
3 19 68 18
3 91 18 68
3 45 54 52
3 46 52 50
3 95 82 60
POINT_DATA 114
SCALARS U float 1
LOOKUP_TABLE default
-0.003637
0.997087
7.989663
1.014905
0.009190
0.037655
0.029950
0.085292
0.170047
0.299249
0.462221
0.699082
1.358825
1.827040
2.348218
3.008203
3.744368
4.626760
5.610907
6.723877
6.721678
5.604472
4.669921
3.698985
3.090721
2.345377
1.827960
1.377103
0.695966
0.466068
0.274353
0.187137
0.058040
0.055760
-0.002310
0.008243
1.019528
1.020911
0.091272
0.841187
2.000415
0.560072
0.571615
0.171006
0.753094
3.426057
2.863020
0.872386
0.789422
1.448308
2.103796
0.352239
2.669309
2.232338
2.451787
0.572793
4.196701
0.444639
0.012496
0.273330
0.248978
1.237299
0.301257
1.857339
1.052267
0.513957
0.372801
0.064427
5.533393
0.105191
1.744841
1.896693
0.104672
1.773773
4.518115
0.769645
1.253113
1.255828
0.893074
0.127920
3.195939
0.854824
0.399799
1.592581
2.614076
0.458426
1.418946
3.568799
0.281165
2.217339
0.042979
4.582043
1.513619
3.361046
0.698195
0.206223
1.235898
0.166201
2.819380
0.209933
0.676142
1.263720
0.043424
3.634537
1.008620
1.730429
1.597825
0.352703
1.227472
2.411122
0.630859
0.073136
1.027165
0.527830
