# vtk DataFile Version 2.0
patchtest_tri3_mix
ASCII
DATASET POLYDATA
POINTS 240 float
0.000000 0.000000 0.000000
1.000000 0.000000 0.000000
1.000000 1.000000 0.000000
0.000000 1.000000 0.000000
0.062500 0.000000 0.000000
0.125000 0.000000 0.000000
0.187500 0.000000 0.000000
0.250000 0.000000 0.000000
0.312500 0.000000 0.000000
0.375000 0.000000 0.000000
0.437500 0.000000 0.000000
0.500000 0.000000 0.000000
0.562500 0.000000 0.000000
0.625000 0.000000 0.000000
0.687500 0.000000 0.000000
0.750000 0.000000 0.000000
0.812500 0.000000 0.000000
0.875000 0.000000 0.000000
0.937500 0.000000 0.000000
1.000000 0.062500 0.000000
1.000000 0.125000 0.000000
1.000000 0.187500 0.000000
1.000000 0.250000 0.000000
1.000000 0.312500 0.000000
1.000000 0.375000 0.000000
1.000000 0.437500 0.000000
1.000000 0.500000 0.000000
1.000000 0.562500 0.000000
1.000000 0.625000 0.000000
1.000000 0.687500 0.000000
1.000000 0.750000 0.000000
1.000000 0.812500 0.000000
1.000000 0.875000 0.000000
1.000000 0.937500 0.000000
0.937500 1.000000 0.000000
0.875000 1.000000 0.000000
0.812500 1.000000 0.000000
0.750000 1.000000 0.000000
0.687500 1.000000 0.000000
0.625000 1.000000 0.000000
0.562500 1.000000 0.000000
0.500000 1.000000 0.000000
0.437500 1.000000 0.000000
0.375000 1.000000 0.000000
0.312500 1.000000 0.000000
0.250000 1.000000 0.000000
0.187500 1.000000 0.000000
0.125000 1.000000 0.000000
0.062500 1.000000 0.000000
0.000000 0.937500 0.000000
0.000000 0.875000 0.000000
0.000000 0.812500 0.000000
0.000000 0.750000 0.000000
0.000000 0.687500 0.000000
0.000000 0.625000 0.000000
0.000000 0.562500 0.000000
0.000000 0.500000 0.000000
0.000000 0.437500 0.000000
0.000000 0.375000 0.000000
0.000000 0.312500 0.000000
0.000000 0.250000 0.000000
0.000000 0.187500 0.000000
0.000000 0.125000 0.000000
0.000000 0.062500 0.000000
0.690346 0.399102 0.000000
0.657618 0.202252 0.000000
0.617966 0.398596 0.000000
0.370181 0.064631 0.000000
0.070993 0.923674 0.000000
0.063812 0.169691 0.000000
0.125537 0.213435 0.000000
0.839558 0.398614 0.000000
0.143752 0.064515 0.000000
0.842487 0.268484 0.000000
0.622287 0.135621 0.000000
0.070168 0.082382 0.000000
0.874105 0.335569 0.000000
0.478328 0.133560 0.000000
0.386558 0.356081 0.000000
0.585296 0.201686 0.000000
0.580990 0.336163 0.000000
0.602693 0.598207 0.000000
0.329577 0.469852 0.000000
0.134563 0.659183 0.000000
0.334940 0.125935 0.000000
0.392302 0.269976 0.000000
0.266394 0.583319 0.000000
0.324885 0.321195 0.000000
0.127184 0.289570 0.000000
0.199681 0.548011 0.000000
0.619792 0.268568 0.000000
0.134335 0.804764 0.000000
0.442222 0.320204 0.000000
0.539541 0.783961 0.000000
0.729702 0.456533 0.000000
0.471827 0.816847 0.000000
0.133964 0.585492 0.000000
0.766955 0.135740 0.000000
0.466480 0.679244 0.000000
0.611563 0.879854 0.000000
0.458272 0.388712 0.000000
0.939801 0.339468 0.000000
0.655268 0.333401 0.000000
0.066963 0.401484 0.000000
0.325764 0.396404 0.000000
0.260420 0.361930 0.000000
0.874258 0.202496 0.000000
0.801062 0.785051 0.000000
0.920777 0.271620 0.000000
0.256549 0.289457 0.000000
0.474654 0.747702 0.000000
0.319680 0.251108 0.000000
0.465532 0.607340 0.000000
0.359529 0.927986 0.000000
0.798823 0.068849 0.000000
0.800281 0.633348 0.000000
0.068011 0.622671 0.000000
0.142643 0.940024 0.000000
0.767251 0.267800 0.000000
0.264834 0.509477 0.000000
0.604506 0.670974 0.000000
0.472687 0.881651 0.000000
0.403746 0.863918 0.000000
0.130414 0.364127 0.000000
0.675027 0.856231 0.000000
0.262513 0.435851 0.000000
0.200787 0.621771 0.000000
0.124158 0.137504 0.000000
0.510417 0.333624 0.000000
0.132433 0.438042 0.000000
0.249660 0.217527 0.000000
0.802964 0.202104 0.000000
0.841064 0.135915 0.000000
0.931334 0.857723 0.000000
0.537910 0.707867 0.000000
0.288612 0.934046 0.000000
0.513320 0.199429 0.000000
0.304761 0.183832 0.000000
0.198622 0.844044 0.000000
0.597391 0.526800 0.000000
0.189544 0.182132 0.000000
0.399373 0.650725 0.000000
0.799379 0.934685 0.000000
0.443743 0.066806 0.000000
0.604693 0.743262 0.000000
0.865964 0.672762 0.000000
0.657645 0.069048 0.000000
0.516091 0.067827 0.000000
0.527069 0.492765 0.000000
0.189121 0.254799 0.000000
0.550569 0.134443 0.000000
0.532305 0.567917 0.000000
0.732391 0.905526 0.000000
0.924485 0.408004 0.000000
0.737270 0.822982 0.000000
0.693489 0.268059 0.000000
0.936695 0.067613 0.000000
0.133418 0.511771 0.000000
0.541805 0.861511 0.000000
0.201784 0.769330 0.000000
0.931931 0.636688 0.000000
0.474745 0.261989 0.000000
0.547295 0.267588 0.000000
0.135020 0.732425 0.000000
0.462934 0.459708 0.000000
0.269270 0.731492 0.000000
0.694293 0.135838 0.000000
0.587263 0.068395 0.000000
0.268446 0.804140 0.000000
0.068187 0.845969 0.000000
0.329484 0.854763 0.000000
0.931087 0.784232 0.000000
0.730329 0.202007 0.000000
0.336495 0.771402 0.000000
0.431711 0.936167 0.000000
0.734118 0.596167 0.000000
0.660911 0.932282 0.000000
0.193429 0.327314 0.000000
0.511576 0.935735 0.000000
0.256086 0.134549 0.000000
0.670678 0.707526 0.000000
0.865785 0.747719 0.000000
0.068200 0.771674 0.000000
0.196476 0.400552 0.000000
0.931638 0.710878 0.000000
0.736403 0.746453 0.000000
0.865296 0.899586 0.000000
0.800825 0.709121 0.000000
0.397125 0.502320 0.000000
0.198301 0.474308 0.000000
0.870909 0.457251 0.000000
0.134379 0.875837 0.000000
0.735428 0.670980 0.000000
0.865947 0.598402 0.000000
0.865294 0.823427 0.000000
0.729043 0.333980 0.000000
0.934300 0.485932 0.000000
0.402495 0.726061 0.000000
0.398323 0.576387 0.000000
0.533425 0.408171 0.000000
0.728109 0.068826 0.000000
0.067646 0.474676 0.000000
0.869132 0.069041 0.000000
0.067839 0.548059 0.000000
0.659689 0.476285 0.000000
0.267929 0.657494 0.000000
0.767716 0.398807 0.000000
0.064184 0.249709 0.000000
0.188480 0.116989 0.000000
0.463965 0.534424 0.000000
0.802271 0.332902 0.000000
0.940511 0.204244 0.000000
0.440024 0.199643 0.000000
0.294539 0.066925 0.000000
0.930782 0.931215 0.000000
0.666564 0.556119 0.000000
0.335001 0.693849 0.000000
0.919431 0.136385 0.000000
0.932250 0.561348 0.000000
0.371143 0.196585 0.000000
0.866007 0.525551 0.000000
0.068282 0.697622 0.000000
0.393875 0.429077 0.000000
0.211889 0.925949 0.000000
0.799419 0.861522 0.000000
0.332995 0.618100 0.000000
0.201809 0.695538 0.000000
0.065465 0.327216 0.000000
0.331682 0.543586 0.000000
0.800391 0.476353 0.000000
0.671945 0.781842 0.000000
0.799658 0.556884 0.000000
0.587662 0.458182 0.000000
0.223616 0.062940 0.000000
0.260817 0.872953 0.000000
0.406581 0.131343 0.000000
0.669414 0.632489 0.000000
0.606147 0.814072 0.000000
0.732808 0.523438 0.000000
0.582146 0.936589 0.000000
POLYGONS 414 1656
3 0 4 63
3 63 4 75
3 61 62 69
3 69 75 127
3 75 69 62
3 62 63 75
3 207 61 69
3 4 5 75
3 72 127 75
3 72 5 6
3 6 233 72
3 233 6 7
3 72 233 208
3 127 70 69
3 70 127 140
3 208 140 127
3 179 140 208
3 127 72 208
3 70 140 149
3 140 130 149
3 72 75 5
3 207 69 70
3 60 207 59
3 207 60 61
3 59 207 227
3 57 58 103
3 227 103 58
3 123 103 227
3 58 59 227
3 57 103 201
3 227 207 88
3 129 103 123
3 123 88 177
3 149 177 88
3 109 177 149
3 207 70 88
3 123 177 183
3 157 201 129
3 103 129 201
3 183 189 129
3 125 189 183
3 123 183 129
3 157 129 189
3 183 177 105
3 123 227 88
3 70 149 88
3 57 201 56
3 179 208 233
3 213 7 8
3 67 8 9
3 213 8 67
3 179 213 84
3 179 233 213
3 219 137 84
3 84 137 179
3 213 67 84
3 179 137 130
3 84 67 235
3 179 130 140
3 10 143 67
3 77 143 147
3 11 143 10
3 143 235 67
3 219 235 212
3 219 84 235
3 161 212 136
3 77 212 235
3 235 143 77
3 219 212 85
3 212 77 136
3 9 10 67
3 137 219 111
3 130 111 109
3 130 137 111
3 109 111 87
3 109 105 177
3 125 183 105
3 125 105 104
3 87 104 105
3 104 87 78
3 105 109 87
3 125 104 82
3 111 85 87
3 149 130 109
3 78 85 92
3 222 104 78
3 100 92 128
3 161 92 85
3 111 219 85
3 78 92 100
3 188 82 222
3 82 104 222
3 100 164 222
3 199 164 100
3 222 78 100
3 188 222 164
3 209 164 148
3 78 87 85
3 161 85 212
3 189 125 119
3 128 92 161
3 233 7 213
3 119 125 82
3 56 203 55
3 56 201 203
3 55 203 116
3 53 54 116
3 221 53 116
3 53 221 52
3 54 55 116
3 203 96 116
3 83 116 96
3 96 157 89
3 89 126 96
3 126 89 86
3 189 89 157
3 96 126 83
3 221 83 163
3 221 116 83
3 163 226 159
3 226 163 83
3 83 126 226
3 52 221 182
3 126 205 226
3 96 203 157
3 157 203 201
3 182 221 163
3 51 182 169
3 182 51 52
3 169 182 91
3 51 169 50
3 49 50 68
3 48 3 49
3 49 68 48
3 68 50 169
3 191 68 169
3 191 91 138
3 138 159 168
3 159 138 91
3 182 163 91
3 117 191 223
3 68 47 48
3 47 68 117
3 117 46 47
3 223 46 117
3 68 191 117
3 223 191 138
3 191 169 91
3 163 159 91
3 226 165 159
3 119 228 86
3 119 82 228
3 86 228 225
3 86 205 126
3 165 226 205
3 165 205 216
3 225 216 205
3 141 216 225
3 205 86 225
3 173 165 216
3 225 228 198
3 159 165 168
3 198 141 225
3 198 188 209
3 209 112 198
3 134 98 112
3 188 164 209
3 198 112 141
3 141 197 216
3 197 141 98
3 98 110 197
3 134 110 98
3 141 112 98
3 173 216 197
3 151 112 209
3 198 228 188
3 119 89 189
3 95 197 110
3 234 168 170
3 234 223 138
3 170 168 173
3 234 170 135
3 223 45 46
3 45 223 135
3 135 44 45
3 113 44 135
3 223 234 135
3 135 170 113
3 138 168 234
3 122 113 170
3 173 197 122
3 95 121 122
3 158 121 95
3 197 95 122
3 122 121 174
3 113 43 44
3 43 113 174
3 174 42 43
3 41 42 174
3 113 122 174
3 174 121 178
3 122 170 173
3 168 165 173
3 93 95 110
3 86 89 119
3 188 228 82
3 143 11 147
3 147 12 167
3 12 147 11
3 74 167 146
3 147 167 150
3 136 150 79
3 136 77 150
3 65 79 74
3 74 79 150
3 150 167 74
3 136 79 162
3 167 12 13
3 162 161 136
3 146 13 14
3 97 200 114
3 15 200 14
3 146 14 200
3 74 166 65
3 146 200 166
3 118 172 131
3 97 172 166
3 200 97 166
3 166 74 146
3 200 15 114
3 13 146 167
3 172 65 166
3 80 128 162
3 128 161 162
3 162 79 90
3 80 162 90
3 199 80 66
3 80 199 128
3 232 66 204
3 66 232 199
3 66 80 102
3 199 232 148
3 80 90 102
3 199 148 164
3 90 155 102
3 155 90 65
3 102 155 195
3 155 65 172
3 172 118 155
3 195 155 118
3 204 64 94
3 204 66 64
3 64 206 94
3 195 206 64
3 64 102 195
3 238 204 94
3 195 118 210
3 64 66 102
3 79 65 90
3 232 204 139
3 172 97 131
3 77 147 150
3 202 114 16
3 16 114 15
3 202 16 17
3 131 132 106
3 97 132 131
3 132 217 106
3 202 217 132
3 114 202 132
3 73 131 106
3 202 17 156
3 118 131 73
3 156 18 19
3 156 217 202
3 1 19 18
3 156 19 20
3 217 211 106
3 211 217 21
3 20 21 217
3 217 156 20
3 211 21 22
3 156 17 18
3 108 106 211
3 210 73 76
3 210 118 73
3 76 73 108
3 210 76 71
3 206 229 94
3 229 206 71
3 71 190 229
3 153 190 71
3 206 210 71
3 220 229 190
3 71 76 153
3 206 195 210
3 101 153 76
3 101 108 23
3 22 23 108
3 73 106 108
3 101 23 24
3 153 196 190
3 196 153 25
3 24 25 153
3 153 101 24
3 196 25 26
3 101 76 108
3 211 22 108
3 238 94 229
3 97 114 132
3 196 220 190
3 148 139 151
3 148 232 139
3 151 139 81
3 151 134 112
3 151 120 134
3 120 151 81
3 120 144 134
3 144 120 180
3 81 236 120
3 93 134 144
3 139 215 81
3 134 93 110
3 236 180 120
3 236 215 175
3 238 175 215
3 115 192 175
3 139 204 215
3 236 175 192
3 230 144 180
3 230 180 185
3 192 185 180
3 107 154 185
3 180 236 192
3 230 185 154
3 185 192 187
3 81 215 236
3 215 204 238
3 237 144 230
3 93 237 158
3 93 144 237
3 239 158 99
3 158 178 121
3 41 178 40
3 41 174 178
3 40 239 39
3 239 40 178
3 178 158 239
3 158 237 99
3 95 93 158
3 176 99 124
3 99 237 124
3 37 152 142
3 154 152 124
3 230 124 237
3 176 124 152
3 39 176 38
3 39 239 176
3 38 176 152
3 152 37 38
3 224 152 154
3 176 239 99
3 154 124 230
3 175 238 231
3 148 151 209
3 231 220 193
3 231 238 229
3 145 193 160
3 231 193 115
3 187 192 115
3 187 115 145
3 181 145 184
3 145 181 187
3 115 193 145
3 187 181 107
3 193 220 218
3 187 107 185
3 218 26 27
3 218 220 196
3 27 28 218
3 218 28 160
3 184 160 29
3 160 184 145
3 29 30 184
3 160 28 29
3 181 184 171
3 218 160 193
3 229 220 231
3 171 184 30
3 224 107 194
3 224 154 107
3 107 181 194
3 224 194 186
3 142 36 37
3 36 142 35
3 186 35 142
3 214 35 186
3 142 224 186
3 186 194 133
3 224 142 152
3 133 214 186
3 133 171 31
3 31 32 133
3 171 30 31
3 133 32 214
3 214 34 35
3 34 214 33
3 33 2 34
3 214 32 33
3 133 194 171
3 181 171 194
3 115 175 231
3 218 196 26
3 100 128 199
POINT_DATA 240
SCALARS U float 1
LOOKUP_TABLE default
767321139364.261597
335847717354.338074
243772524831.947052
95014087887.251511
-364210968400.599609
1740780052828.744141
-920072000880.562134
364726323476.981873
1835103026817.829834
-872579347021.891846
-1483446608333.233154
6473506330772.189453
-8121854523566.379883
7112427491113.149414
-2318416349265.668945
-433171933763.862427
1781304097437.894043
-379122945191.606873
291324107998.286743
173763448762.855804
301152507311.349182
91445691830.008408
1939481715192.128174
-4384767419603.793945
7969717880206.251953
-7663218269841.526367
5266955247435.082031
-60853475329.393898
-2258178627601.569824
3298715846617.160645
-1080421662882.815430
548884363911.259521
613772429528.010742
503313250333.428162
555292005012.440552
660071484942.725952
275037170976.054138
484506222071.157043
487283641459.302795
1399583056750.187744
-1661813684381.180908
3589226519002.303711
-2077520746588.150635
1746807803538.555420
944462033132.983398
-621783381674.907959
1843418398527.972412
-352173255596.833008
1246873134626.234375
1275946368857.236084
-642336876055.769409
2424765058354.471191
-1296756053758.371094
914517802299.568604
2640480451024.581055
-3841957813763.233398
5507198262474.686523
-3769001622840.793457
3397876550314.603516
-1657059267864.239258
2299583956439.694336
-1398514493224.059814
1785055095750.934326
-320751452719.826416
-1764344455066.263184
1133183834788.889893
4953934344669.481445
2344214666295.016602
1956967916444.378662
-676414234525.258423
2509497506889.094238
-94085268142.340576
-649391597583.537109
-1043489736517.809570
2445580334616.758789
2740068062729.018555
1030633500081.374756
4400982613623.673828
-3417938275414.619629
-1341348844990.587891
-5770042014589.013672
-2301401423816.888184
-1875106384770.884521
-1368957706350.796875
4502502938717.522461
3297516792826.856445
-3639809673816.538574
492326149355.673645
-2426173832868.178711
1960958272616.977295
-3067006654481.350098
1105643605672.134766
-91880017226.519608
1065326122890.715332
-2191409213765.934814
2983680153624.375977
80656360895.800385
-2212635942491.006836
4822008182846.336914
1240039934780.460938
4184354129435.882324
-4252017561018.219238
4527686428979.805664
2209303334584.310547
5516626968233.697266
2241045511491.082031
-2395696245934.661133
1673640260338.342773
5915880591736.116211
-2760951310711.554688
195906174695.358093
4187057879406.348633
816197357502.408569
1948171922377.450684
-4339629893588.037598
-1128431149381.535400
-242600248241.766846
2042872912855.128174
504331835143.675171
2228311710796.287109
2742879623200.191406
2152194053042.555176
-534080297236.729248
2788179946091.859863
-83173899548.359650
-2139958514853.476562
866102364766.305542
-421307253741.233093
2176530959793.207275
-109416560726.989426
-38518191015.015991
3666324216822.202637
2212545310468.814453
654211163796.545654
2647220650604.328613
2367571871805.955566
204668843218.755280
3558116274492.571289
3799762624505.099609
2941519465972.363281
-734448441328.964966
-162431844340.231262
761059484070.651001
-2584432588425.191895
-3600413060408.344238
5010758687671.054688
-5292625857117.918945
2933888991188.918457
6564493306078.957031
2607805611177.587402
-2483157014390.172363
-2103602493471.040771
1576307349889.751465
3491124871679.036133
2373181603332.715332
5022911325126.295898
368092661578.475525
847888983758.356323
321918356181.379456
-1749171273247.377441
2051126150266.616455
-2249708070031.589844
7241912555099.160156
818996134328.359375
-5315016120415.959961
-2114527287168.080566
2898048819003.073730
2854297230965.685059
1277472722803.322266
2840851611149.567871
2873490472759.466309
1672798577117.458252
-2613040740617.190430
2147587123607.127930
-688544478858.567383
-3202619746837.384766
2812092204344.571289
3101738325180.676758
4000991920897.701172
-1774742348251.287354
3547437033458.430664
-433066507435.279968
-1360970053911.848877
-1882821085364.839355
-86812574452.440598
-3677517898985.869629
2022457975592.450684
93819370746.091095
2415190364310.714355
3126545380204.458008
-2947882900049.246094
-362265811369.301086
6055749065071.156250
-3537189759619.646484
998070503481.323364
-2514725246218.766113
1413209093194.836182
-2250761592745.287109
-5520535478891.191406
2826207708280.421875
7923054404808.926758
-354172213903.275513
2884699176480.183594
3797051174299.287109
2692807311177.732910
111462688121.447708
4874881839007.608398
2931995711926.845215
3832633135770.133789
5504656324160.104492
539744558674.225403
-2250255400218.221680
1718920518008.453857
-756699072811.096191
1643075080731.082520
2584590472048.528320
5852556957470.124023
1811831629381.739746
-356396751286.086609
-5207321789888.744141
6092048053384.296875
5413316565515.014648
352310613974.968872
983567227235.843140
-838705293683.406860
1630199028505.450195
5987058847703.335938
311432830980.969238
6853679462410.393555
-1598907194921.335693
3109115240067.564941
1703600786691.682129
-9321682257674.191406
2357249377626.599121
-1811368999135.515137
-858768140094.856201
-825662795125.444092
860654042867.946289
3916134658462.213867
-1064690909156.067749
