# vtk DataFile Version 2.0
patchtest_tri3_mix
ASCII
DATASET POLYDATA
POINTS 100 float
0.000000 0.000000 0.000000
1.000000 0.000000 0.000000
1.000000 1.000000 0.000000
0.000000 1.000000 0.000000
0.100000 0.000000 0.000000
0.200000 0.000000 0.000000
0.300000 0.000000 0.000000
0.400000 0.000000 0.000000
0.500000 0.000000 0.000000
0.600000 0.000000 0.000000
0.700000 0.000000 0.000000
0.800000 0.000000 0.000000
0.900000 0.000000 0.000000
1.000000 0.100000 0.000000
1.000000 0.200000 0.000000
1.000000 0.300000 0.000000
1.000000 0.400000 0.000000
1.000000 0.500000 0.000000
1.000000 0.600000 0.000000
1.000000 0.700000 0.000000
1.000000 0.800000 0.000000
1.000000 0.900000 0.000000
0.900000 1.000000 0.000000
0.800000 1.000000 0.000000
0.700000 1.000000 0.000000
0.600000 1.000000 0.000000
0.500000 1.000000 0.000000
0.400000 1.000000 0.000000
0.300000 1.000000 0.000000
0.200000 1.000000 0.000000
0.100000 1.000000 0.000000
0.000000 0.900000 0.000000
0.000000 0.800000 0.000000
0.000000 0.700000 0.000000
0.000000 0.600000 0.000000
0.000000 0.500000 0.000000
0.000000 0.400000 0.000000
0.000000 0.300000 0.000000
0.000000 0.200000 0.000000
0.000000 0.100000 0.000000
0.639528 0.114880 0.000000
0.441985 0.225230 0.000000
0.618860 0.336557 0.000000
0.426096 0.443747 0.000000
0.323850 0.223909 0.000000
0.675387 0.664904 0.000000
0.493697 0.335858 0.000000
0.562168 0.226071 0.000000
0.373757 0.773501 0.000000
0.901025 0.221465 0.000000
0.097781 0.673642 0.000000
0.896280 0.891482 0.000000
0.490784 0.552930 0.000000
0.413423 0.112242 0.000000
0.200514 0.665365 0.000000
0.240230 0.337415 0.000000
0.554334 0.663466 0.000000
0.672289 0.885892 0.000000
0.102543 0.891993 0.000000
0.158303 0.445156 0.000000
0.314114 0.662616 0.000000
0.555065 0.885377 0.000000
0.105147 0.218327 0.000000
0.617515 0.774398 0.000000
0.786937 0.887644 0.000000
0.322269 0.886061 0.000000
0.873788 0.335667 0.000000
0.103215 0.108556 0.000000
0.116278 0.332512 0.000000
0.615695 0.554631 0.000000
0.211831 0.224595 0.000000
0.125290 0.781346 0.000000
0.205158 0.112325 0.000000
0.433261 0.662429 0.000000
0.296793 0.444065 0.000000
0.742458 0.775839 0.000000
0.437714 0.885069 0.000000
0.524085 0.113563 0.000000
0.365521 0.551651 0.000000
0.250378 0.775356 0.000000
0.759530 0.115467 0.000000
0.899752 0.447662 0.000000
0.115574 0.558380 0.000000
0.796016 0.227570 0.000000
0.872147 0.559627 0.000000
0.879958 0.111807 0.000000
0.901425 0.673328 0.000000
0.307613 0.111120 0.000000
0.793254 0.447486 0.000000
0.745073 0.337735 0.000000
0.681353 0.226957 0.000000
0.870670 0.780675 0.000000
0.209782 0.888147 0.000000
0.551904 0.444940 0.000000
0.674810 0.446152 0.000000
0.367110 0.335419 0.000000
0.495376 0.773561 0.000000
0.741873 0.555866 0.000000
0.793323 0.666545 0.000000
0.238937 0.551498 0.000000
POLYGONS 158 632
3 39 0 4
3 38 39 67
3 4 5 67
3 62 67 72
3 4 67 39
3 38 67 62
3 36 37 68
3 35 36 59
3 62 70 68
3 59 68 55
3 68 59 36
3 62 68 37
3 37 38 62
3 82 35 59
3 5 72 67
3 72 6 87
3 6 72 5
3 87 6 7
3 70 72 87
3 87 53 44
3 53 87 7
3 77 41 53
3 44 53 41
3 70 87 44
3 55 95 74
3 55 70 44
3 55 74 59
3 70 55 68
3 95 41 46
3 55 44 95
3 52 43 93
3 46 43 95
3 46 41 47
3 95 43 74
3 44 41 95
3 99 59 74
3 53 7 8
3 72 70 62
3 78 74 43
3 34 50 33
3 50 34 82
3 33 50 71
3 54 71 50
3 54 82 99
3 92 58 71
3 54 50 82
3 34 35 82
3 33 71 32
3 31 32 58
3 3 31 30
3 30 58 29
3 58 30 31
3 92 29 58
3 32 71 58
3 71 54 79
3 99 78 60
3 78 99 74
3 60 78 73
3 54 60 79
3 60 73 48
3 73 78 52
3 96 73 56
3 48 73 96
3 78 43 52
3 79 60 48
3 28 92 65
3 92 71 79
3 65 92 79
3 92 28 29
3 27 76 26
3 76 65 48
3 65 27 28
3 27 65 76
3 76 96 61
3 65 79 48
3 96 76 48
3 56 73 52
3 54 99 60
3 82 59 99
3 93 43 46
3 8 9 77
3 77 9 40
3 47 41 77
3 40 10 80
3 10 40 9
3 80 10 11
3 40 80 90
3 77 40 47
3 46 42 93
3 46 47 42
3 42 47 90
3 93 42 94
3 42 89 94
3 89 42 90
3 83 89 90
3 94 89 88
3 47 40 90
3 69 93 94
3 90 80 83
3 52 93 69
3 11 12 85
3 85 12 13
3 85 83 80
3 1 13 12
3 13 14 85
3 85 14 49
3 89 66 88
3 66 89 83
3 66 83 49
3 88 66 81
3 16 66 15
3 15 49 14
3 81 16 17
3 81 66 16
3 15 66 49
3 83 85 49
3 88 81 84
3 85 80 11
3 97 94 88
3 63 56 45
3 56 52 69
3 45 56 69
3 63 61 96
3 75 45 98
3 97 45 69
3 64 75 91
3 45 75 63
3 94 97 69
3 63 75 57
3 26 61 25
3 26 76 61
3 25 61 57
3 57 64 24
3 64 57 75
3 24 64 23
3 57 24 25
3 61 63 57
3 98 45 97
3 56 63 96
3 98 84 86
3 84 98 97
3 86 84 18
3 91 98 86
3 17 18 84
3 18 19 86
3 97 88 84
3 91 86 19
3 64 51 23
3 64 91 51
3 51 91 20
3 23 51 22
3 21 22 51
3 2 22 21
3 21 51 20
3 91 19 20
3 91 75 98
3 17 84 81
3 53 8 77
POINT_DATA 100
SCALARS U float 1
LOOKUP_TABLE default
-0.000000
1.000000
2.000000
1.000000
0.100000
0.200000
0.300000
0.400000
0.500000
0.600000
0.700000
0.800000
0.900000
1.100000
1.200000
1.300000
1.400000
1.500000
1.600000
1.700000
1.800000
1.900000
1.900000
1.800000
1.700000
1.600000
1.500000
1.400000
1.300000
1.200000
1.100000
0.900000
0.800000
0.700000
0.600000
0.500000
0.400000
0.300000
0.200000
0.100000
0.754408
0.667215
0.955418
0.869843
0.547760
1.340290
0.829556
0.788238
1.147258
1.122490
0.771423
1.787762
1.043714
0.525666
0.865878
0.577645
1.217799
1.558182
0.994536
0.603459
0.976730
1.440442
0.323474
1.391913
1.674581
1.208330
1.209455
0.211771
0.448790
1.170326
0.436426
0.906636
0.317483
1.095689
0.740858
1.518297
1.322782
0.637649
0.917172
1.025734
0.874997
1.347414
0.673954
1.023586
1.431774
0.991766
1.574753
0.418733
1.240739
1.082809
0.908310
1.651345
1.097929
0.996844
1.120962
0.702530
1.268937
1.297739
1.459868
0.790435
