# vtk DataFile Version 2.0
patchtest_tri3_mix
ASCII
DATASET POLYDATA
POINTS 80 float
0.000000 0.000000 0.000000
1.000000 0.000000 0.000000
1.000000 1.000000 0.000000
0.000000 1.000000 0.000000
0.125000 0.000000 0.000000
0.250000 0.000000 0.000000
0.375000 0.000000 0.000000
0.500000 0.000000 0.000000
0.625000 0.000000 0.000000
0.750000 0.000000 0.000000
0.875000 0.000000 0.000000
1.000000 0.125000 0.000000
1.000000 0.250000 0.000000
1.000000 0.375000 0.000000
1.000000 0.500000 0.000000
1.000000 0.625000 0.000000
1.000000 0.750000 0.000000
1.000000 0.875000 0.000000
0.875000 1.000000 0.000000
0.750000 1.000000 0.000000
0.625000 1.000000 0.000000
0.500000 1.000000 0.000000
0.375000 1.000000 0.000000
0.250000 1.000000 0.000000
0.125000 1.000000 0.000000
0.000000 0.875000 0.000000
0.000000 0.750000 0.000000
0.000000 0.625000 0.000000
0.000000 0.500000 0.000000
0.000000 0.375000 0.000000
0.000000 0.250000 0.000000
0.000000 0.125000 0.000000
0.875285 0.887072 0.000000
0.374513 0.758571 0.000000
0.624740 0.771859 0.000000
0.623640 0.892548 0.000000
0.378124 0.237721 0.000000
0.629699 0.371497 0.000000
0.124350 0.607594 0.000000
0.251700 0.534305 0.000000
0.498284 0.860232 0.000000
0.377758 0.496644 0.000000
0.378982 0.365006 0.000000
0.752561 0.292317 0.000000
0.752361 0.435243 0.000000
0.376321 0.628893 0.000000
0.629540 0.239147 0.000000
0.124121 0.111076 0.000000
0.373470 0.116942 0.000000
0.751200 0.575255 0.000000
0.247932 0.891248 0.000000
0.874974 0.637785 0.000000
0.125791 0.478052 0.000000
0.625296 0.114806 0.000000
0.749508 0.859370 0.000000
0.875282 0.238325 0.000000
0.502208 0.584782 0.000000
0.503361 0.217289 0.000000
0.504719 0.330927 0.000000
0.498538 0.110442 0.000000
0.126855 0.351223 0.000000
0.500212 0.720568 0.000000
0.253509 0.270497 0.000000
0.249753 0.135140 0.000000
0.626588 0.641256 0.000000
0.126465 0.228477 0.000000
0.874712 0.766621 0.000000
0.249991 0.659615 0.000000
0.628204 0.506660 0.000000
0.751080 0.145949 0.000000
0.750108 0.716908 0.000000
0.253345 0.404200 0.000000
0.373039 0.882370 0.000000
0.248630 0.779404 0.000000
0.875935 0.504493 0.000000
0.122853 0.869888 0.000000
0.503799 0.454427 0.000000
0.875829 0.370056 0.000000
0.123478 0.738731 0.000000
0.875887 0.114784 0.000000
POLYGONS 126 504
3 31 0 47
3 63 47 5
3 4 47 0
3 5 47 4
3 31 47 65
3 65 47 63
3 29 30 60
3 29 60 52
3 60 30 65
3 62 60 65
3 71 52 60
3 30 31 65
3 29 52 28
3 62 65 63
3 36 63 48
3 48 5 6
3 6 7 59
3 57 48 59
3 6 59 48
3 36 48 57
3 71 62 42
3 71 60 62
3 71 42 41
3 42 62 36
3 58 42 36
3 76 41 42
3 63 36 62
3 52 71 39
3 45 41 56
3 63 5 48
3 39 71 41
3 27 28 38
3 27 78 26
3 78 27 38
3 73 75 78
3 26 78 75
3 52 38 28
3 3 25 24
3 75 50 24
3 73 50 75
3 24 50 23
3 75 24 25
3 25 26 75
3 78 38 67
3 73 67 33
3 67 73 78
3 45 33 67
3 45 39 41
3 40 33 61
3 45 67 39
3 67 38 39
3 73 33 72
3 50 22 23
3 50 72 22
3 72 21 22
3 21 72 40
3 35 21 40
3 72 33 40
3 61 33 45
3 72 50 73
3 52 39 38
3 8 59 7
3 59 53 57
3 53 59 8
3 53 9 69
3 9 53 8
3 69 9 79
3 57 53 46
3 46 53 69
3 76 58 37
3 76 42 58
3 37 43 44
3 46 43 37
3 76 37 68
3 46 37 58
3 58 57 46
3 44 68 37
3 46 69 43
3 76 56 41
3 69 55 43
3 69 79 55
3 79 1 11
3 1 79 10
3 79 11 55
3 55 11 12
3 44 77 74
3 43 55 77
3 12 13 77
3 77 13 74
3 55 12 77
3 77 44 43
3 79 9 10
3 13 14 74
3 61 56 64
3 61 45 56
3 70 64 49
3 68 64 56
3 49 64 68
3 61 64 34
3 56 76 68
3 34 64 70
3 35 34 54
3 35 40 34
3 35 19 20
3 19 35 54
3 32 19 54
3 34 70 54
3 20 21 35
3 54 70 66
3 40 61 34
3 70 51 66
3 51 49 74
3 15 16 51
3 15 74 14
3 15 51 74
3 68 44 49
3 66 51 16
3 54 66 32
3 32 18 19
3 32 17 2
3 17 32 66
3 32 2 18
3 66 16 17
3 49 51 70
3 44 74 49
3 57 58 36
POINT_DATA 80
SCALARS U float 1
LOOKUP_TABLE default
-0.001185
1.002737
8.028758
1.007734
0.003378
0.006361
0.062720
0.121958
0.225681
0.447363
0.662392
1.392977
1.961376
2.567790
3.371526
4.325146
5.348986
6.619365
6.573516
5.371689
4.286402
3.346072
2.632016
1.944091
1.417558
0.693936
0.417616
0.262641
0.120577
0.059903
0.016877
0.005494
5.490583
1.452041
2.725023
3.475965
0.229565
1.006305
0.403824
0.491919
2.510067
0.667049
0.410339
1.135053
1.669426
1.013022
0.658945
0.014280
0.114466
2.342167
1.486926
3.472678
0.225302
0.411584
4.170764
1.374028
1.289897
0.375070
0.584128
0.221128
0.115188
1.822198
0.145923
0.058935
2.039885
0.048831
4.432345
0.760487
1.463904
0.711987
3.167042
0.289196
1.971369
1.096009
2.630146
0.991252
0.882106
1.921659
0.651711
0.962130
