# vtk DataFile Version 2.0
patchtest_tri3_mix
ASCII
DATASET POLYDATA
POINTS 260 float
0.000000 0.000000 0.000000
1.000000 0.000000 0.000000
1.000000 1.000000 0.000000
0.000000 1.000000 0.000000
0.062500 0.000000 0.000000
0.125000 0.000000 0.000000
0.187500 0.000000 0.000000
0.250000 0.000000 0.000000
0.312500 0.000000 0.000000
0.375000 0.000000 0.000000
0.437500 0.000000 0.000000
0.500000 0.000000 0.000000
0.562500 0.000000 0.000000
0.625000 0.000000 0.000000
0.687500 0.000000 0.000000
0.750000 0.000000 0.000000
0.812500 0.000000 0.000000
0.875000 0.000000 0.000000
0.937500 0.000000 0.000000
1.000000 0.062500 0.000000
1.000000 0.125000 0.000000
1.000000 0.187500 0.000000
1.000000 0.250000 0.000000
1.000000 0.312500 0.000000
1.000000 0.375000 0.000000
1.000000 0.437500 0.000000
1.000000 0.500000 0.000000
1.000000 0.562500 0.000000
1.000000 0.625000 0.000000
1.000000 0.687500 0.000000
1.000000 0.750000 0.000000
1.000000 0.812500 0.000000
1.000000 0.875000 0.000000
1.000000 0.937500 0.000000
0.937500 1.000000 0.000000
0.875000 1.000000 0.000000
0.812500 1.000000 0.000000
0.750000 1.000000 0.000000
0.687500 1.000000 0.000000
0.625000 1.000000 0.000000
0.562500 1.000000 0.000000
0.500000 1.000000 0.000000
0.437500 1.000000 0.000000
0.375000 1.000000 0.000000
0.312500 1.000000 0.000000
0.250000 1.000000 0.000000
0.187500 1.000000 0.000000
0.125000 1.000000 0.000000
0.062500 1.000000 0.000000
0.000000 0.937500 0.000000
0.000000 0.875000 0.000000
0.000000 0.812500 0.000000
0.000000 0.750000 0.000000
0.000000 0.687500 0.000000
0.000000 0.625000 0.000000
0.000000 0.562500 0.000000
0.000000 0.500000 0.000000
0.000000 0.437500 0.000000
0.000000 0.375000 0.000000
0.000000 0.312500 0.000000
0.000000 0.250000 0.000000
0.000000 0.187500 0.000000
0.000000 0.125000 0.000000
0.000000 0.062500 0.000000
0.432936 0.693349 0.000000
0.506059 0.191991 0.000000
0.117794 0.114180 0.000000
0.181220 0.132767 0.000000
0.858128 0.928885 0.000000
0.063929 0.209988 0.000000
0.066659 0.067198 0.000000
0.305114 0.131617 0.000000
0.578937 0.572839 0.000000
0.743315 0.398614 0.000000
0.676138 0.260750 0.000000
0.483855 0.126351 0.000000
0.531787 0.877897 0.000000
0.491291 0.815951 0.000000
0.319036 0.617993 0.000000
0.134049 0.376788 0.000000
0.787995 0.932279 0.000000
0.262753 0.511937 0.000000
0.593468 0.505596 0.000000
0.125485 0.786593 0.000000
0.873003 0.703830 0.000000
0.453290 0.549835 0.000000
0.376948 0.655385 0.000000
0.686640 0.681544 0.000000
0.510091 0.592877 0.000000
0.937124 0.664929 0.000000
0.593575 0.066473 0.000000
0.651352 0.196870 0.000000
0.522793 0.521195 0.000000
0.067487 0.409183 0.000000
0.746293 0.267409 0.000000
0.752493 0.128608 0.000000
0.186473 0.822382 0.000000
0.868855 0.481131 0.000000
0.252502 0.725570 0.000000
0.267230 0.375424 0.000000
0.701144 0.612400 0.000000
0.645919 0.937491 0.000000
0.190083 0.204728 0.000000
0.804158 0.224290 0.000000
0.419313 0.937030 0.000000
0.132152 0.510621 0.000000
0.065110 0.609988 0.000000
0.179957 0.886282 0.000000
0.880639 0.628551 0.000000
0.130445 0.578631 0.000000
0.416663 0.115622 0.000000
0.327049 0.270514 0.000000
0.815358 0.295902 0.000000
0.861433 0.782741 0.000000
0.743612 0.475623 0.000000
0.364487 0.804298 0.000000
0.062072 0.814834 0.000000
0.211563 0.939895 0.000000
0.753375 0.669063 0.000000
0.616552 0.442597 0.000000
0.065750 0.277296 0.000000
0.935389 0.222985 0.000000
0.688509 0.435726 0.000000
0.649715 0.559703 0.000000
0.737973 0.739278 0.000000
0.398009 0.297908 0.000000
0.866880 0.056072 0.000000
0.064312 0.678406 0.000000
0.943327 0.872280 0.000000
0.257982 0.241920 0.000000
0.627495 0.319678 0.000000
0.935981 0.296044 0.000000
0.713582 0.807464 0.000000
0.066753 0.475448 0.000000
0.067180 0.343499 0.000000
0.253178 0.800634 0.000000
0.255090 0.652803 0.000000
0.875268 0.334552 0.000000
0.463775 0.477922 0.000000
0.571127 0.824243 0.000000
0.196203 0.545818 0.000000
0.196167 0.274095 0.000000
0.258678 0.581601 0.000000
0.127658 0.716861 0.000000
0.425743 0.830303 0.000000
0.384185 0.227394 0.000000
0.314347 0.691238 0.000000
0.528077 0.064680 0.000000
0.455234 0.251151 0.000000
0.249306 0.176726 0.000000
0.367752 0.154689 0.000000
0.140382 0.058997 0.000000
0.586521 0.381933 0.000000
0.371746 0.730022 0.000000
0.633232 0.626357 0.000000
0.766757 0.597775 0.000000
0.193610 0.615113 0.000000
0.346239 0.933508 0.000000
0.430619 0.766548 0.000000
0.537955 0.447400 0.000000
0.198869 0.477440 0.000000
0.869399 0.119839 0.000000
0.818522 0.862629 0.000000
0.565293 0.640610 0.000000
0.729995 0.197628 0.000000
0.497887 0.663361 0.000000
0.442507 0.621494 0.000000
0.462093 0.406734 0.000000
0.577110 0.194563 0.000000
0.191537 0.685164 0.000000
0.935204 0.445000 0.000000
0.785977 0.798424 0.000000
0.496412 0.940099 0.000000
0.460695 0.882832 0.000000
0.570801 0.938288 0.000000
0.059657 0.141253 0.000000
0.401689 0.368239 0.000000
0.723979 0.542710 0.000000
0.818017 0.657208 0.000000
0.124949 0.177827 0.000000
0.680546 0.874098 0.000000
0.063389 0.746900 0.000000
0.487023 0.734018 0.000000
0.871325 0.190207 0.000000
0.519672 0.376877 0.000000
0.873237 0.260033 0.000000
0.657991 0.381540 0.000000
0.934400 0.150033 0.000000
0.244144 0.870600 0.000000
0.333906 0.407200 0.000000
0.717876 0.934475 0.000000
0.927665 0.935015 0.000000
0.325095 0.546777 0.000000
0.333521 0.338472 0.000000
0.876657 0.550008 0.000000
0.264401 0.308380 0.000000
0.330302 0.476912 0.000000
0.642497 0.816289 0.000000
0.933416 0.736461 0.000000
0.669355 0.749555 0.000000
0.436595 0.181892 0.000000
0.660705 0.067481 0.000000
0.827336 0.588455 0.000000
0.873893 0.409130 0.000000
0.266159 0.443263 0.000000
0.242623 0.114960 0.000000
0.343734 0.076022 0.000000
0.936572 0.589283 0.000000
0.381293 0.876563 0.000000
0.933292 0.075122 0.000000
0.762197 0.333950 0.000000
0.199712 0.342233 0.000000
0.385061 0.582981 0.000000
0.936274 0.515996 0.000000
0.065977 0.542292 0.000000
0.393426 0.511785 0.000000
0.806690 0.444529 0.000000
0.128881 0.647437 0.000000
0.552417 0.707209 0.000000
0.800787 0.074374 0.000000
0.750831 0.868073 0.000000
0.814846 0.373202 0.000000
0.698908 0.328743 0.000000
0.619913 0.132426 0.000000
0.551211 0.129925 0.000000
0.278273 0.060989 0.000000
0.471373 0.323912 0.000000
0.536420 0.772120 0.000000
0.882443 0.857572 0.000000
0.801292 0.522189 0.000000
0.526759 0.257049 0.000000
0.279941 0.930631 0.000000
0.554389 0.317301 0.000000
0.688158 0.133867 0.000000
0.316384 0.201775 0.000000
0.400650 0.056872 0.000000
0.806875 0.728514 0.000000
0.667973 0.496505 0.000000
0.132566 0.310369 0.000000
0.134265 0.934046 0.000000
0.120952 0.858612 0.000000
0.310426 0.766299 0.000000
0.933024 0.803957 0.000000
0.200509 0.409738 0.000000
0.311849 0.855265 0.000000
0.464566 0.062108 0.000000
0.067674 0.940955 0.000000
0.205519 0.062275 0.000000
0.060802 0.881380 0.000000
0.129479 0.243992 0.000000
0.608125 0.879746 0.000000
0.133622 0.443434 0.000000
0.619348 0.693357 0.000000
0.190360 0.755267 0.000000
0.809143 0.155046 0.000000
0.601890 0.256999 0.000000
0.397822 0.441335 0.000000
0.601991 0.759806 0.000000
0.936516 0.370857 0.000000
0.728612 0.064737 0.000000
POLYGONS 454 1816
3 63 0 4
3 4 70 63
3 70 4 5
3 63 70 62
3 61 62 175
3 175 69 61
3 179 69 175
3 62 70 175
3 60 61 69
3 175 70 66
3 70 151 66
3 151 70 5
3 66 151 67
3 6 151 5
3 247 67 151
3 249 69 179
3 249 179 102
3 67 102 179
3 149 102 67
3 179 66 67
3 249 102 141
3 102 129 141
3 179 175 66
3 120 69 249
3 59 60 120
3 120 134 59
3 134 120 238
3 69 120 60
3 59 134 58
3 57 58 93
3 214 56 133
3 133 56 57
3 57 93 133
3 93 58 134
3 79 93 134
3 79 238 211
3 141 211 238
3 195 211 141
3 120 249 238
3 79 211 243
3 133 251 105
3 93 79 251
3 160 243 204
3 243 160 251
3 79 243 251
3 251 133 93
3 211 99 243
3 79 134 238
3 141 238 249
3 251 160 105
3 151 6 247
3 247 7 225
3 7 247 6
3 225 8 206
3 8 225 7
3 247 225 205
3 149 67 205
3 149 205 71
3 71 206 150
3 71 205 225
3 225 206 71
3 234 149 71
3 8 9 206
3 149 129 102
3 110 206 235
3 235 9 10
3 10 245 235
3 245 10 11
3 235 245 110
3 150 110 200
3 150 206 110
3 148 200 65
3 75 200 110
3 110 245 75
3 234 71 150
3 245 147 75
3 235 206 9
3 145 150 200
3 211 195 99
3 195 129 111
3 234 111 129
3 111 234 145
3 129 149 234
3 195 111 193
3 196 204 189
3 243 99 204
3 189 99 193
3 204 99 189
3 99 195 193
3 160 204 81
3 111 125 193
3 141 129 195
3 176 193 125
3 125 145 148
3 148 226 125
3 230 226 148
3 234 150 145
3 125 226 176
3 196 256 215
3 256 189 176
3 167 138 256
3 167 176 226
3 159 138 167
3 167 256 176
3 193 176 189
3 256 196 189
3 92 85 138
3 125 111 145
3 200 148 145
3 196 81 204
3 226 184 167
3 67 247 205
3 138 215 256
3 54 55 106
3 127 106 217
3 214 106 55
3 56 214 55
3 54 106 127
3 52 53 181
3 181 127 143
3 127 181 53
3 53 54 127
3 116 52 181
3 106 214 109
3 109 105 140
3 105 109 214
3 169 98 253
3 140 156 109
3 160 140 105
3 109 156 217
3 143 217 169
3 217 143 127
3 253 135 96
3 169 253 143
3 217 156 169
3 181 143 83
3 136 169 156
3 109 217 106
3 133 105 214
3 253 83 143
3 50 51 116
3 246 248 239
3 116 248 50
3 52 116 51
3 50 248 49
3 3 49 48
3 48 246 47
3 246 48 49
3 49 248 246
3 248 116 240
3 240 83 96
3 83 240 116
3 117 107 188
3 96 107 240
3 83 253 96
3 240 107 239
3 47 239 46
3 47 246 239
3 46 117 45
3 117 46 239
3 239 107 117
3 188 107 96
3 239 248 240
3 181 83 116
3 156 140 142
3 142 81 192
3 81 142 140
3 146 78 86
3 192 78 142
3 196 192 81
3 142 78 136
3 98 136 146
3 135 253 98
3 153 241 146
3 146 241 98
3 136 78 146
3 98 241 135
3 212 78 192
3 142 136 156
3 212 215 85
3 215 212 192
3 165 64 166
3 85 166 212
3 215 138 85
3 212 166 86
3 153 86 64
3 86 153 146
3 153 64 158
3 165 182 64
3 86 166 64
3 241 153 115
3 88 166 85
3 212 86 78
3 160 81 140
3 182 158 64
3 188 135 244
3 188 96 135
3 157 244 208
3 244 135 241
3 115 244 241
3 188 244 231
3 45 231 44
3 45 117 231
3 44 157 43
3 157 44 231
3 231 244 157
3 244 115 208
3 231 117 188
3 173 208 144
3 208 115 144
3 158 77 144
3 77 158 182
3 115 158 144
3 173 144 77
3 43 104 42
3 43 157 104
3 104 172 42
3 172 104 173
3 76 172 173
3 42 172 41
3 104 208 173
3 76 173 77
3 104 157 208
3 153 158 115
3 77 182 227
3 98 169 136
3 215 192 196
3 65 200 75
3 224 75 147
3 147 11 12
3 12 90 147
3 90 12 13
3 147 90 224
3 65 224 168
3 65 75 224
3 168 223 91
3 223 168 224
3 224 90 223
3 65 168 230
3 90 201 223
3 148 65 230
3 201 13 14
3 95 233 259
3 15 259 14
3 201 14 259
3 223 233 91
3 223 201 233
3 233 164 91
3 233 201 259
3 233 95 164
3 91 164 74
3 164 103 94
3 201 90 13
3 168 91 255
3 232 184 226
3 232 230 255
3 255 130 232
3 130 255 74
3 230 168 255
3 232 130 152
3 159 92 138
3 159 184 152
3 152 119 159
3 186 119 152
3 184 232 152
3 82 159 119
3 152 130 186
3 226 230 232
3 130 222 186
3 222 130 74
3 73 222 210
3 94 222 74
3 74 164 94
3 186 222 73
3 237 122 114
3 237 119 122
3 73 114 122
3 216 114 73
3 122 186 73
3 177 237 114
3 94 210 222
3 122 119 186
3 255 91 74
3 82 119 237
3 15 219 259
3 184 159 167
3 219 16 126
3 219 95 259
3 161 126 209
3 17 126 16
3 219 126 161
3 164 254 103
3 95 219 254
3 161 183 254
3 187 183 161
3 219 161 254
3 103 254 183
3 18 126 17
3 219 15 16
3 209 18 19
3 18 209 126
3 1 19 18
3 209 19 20
3 121 183 187
3 121 187 21
3 20 21 187
3 187 209 20
3 121 21 22
3 187 161 209
3 183 121 185
3 94 112 210
3 94 103 112
3 210 112 221
3 185 112 103
3 183 185 103
3 112 137 221
3 216 221 203
3 216 73 221
3 97 203 170
3 203 97 216
3 203 221 137
3 114 216 229
3 112 185 137
3 221 73 210
3 258 137 131
3 137 185 131
3 22 23 131
3 121 131 185
3 258 131 23
3 170 258 25
3 170 203 258
3 24 25 258
3 25 26 170
3 258 23 24
3 97 170 213
3 258 203 137
3 22 131 121
3 97 229 216
3 164 95 254
3 26 213 170
3 88 92 72
3 88 85 92
3 154 163 72
3 82 72 92
3 92 159 82
3 88 72 163
3 182 218 227
3 218 165 163
3 218 252 257
3 163 252 218
3 165 88 163
3 227 218 257
3 72 82 123
3 165 166 88
3 154 123 100
3 123 154 72
3 118 87 100
3 177 100 123
3 82 237 123
3 154 100 87
3 252 199 257
3 199 252 87
3 87 124 199
3 118 124 87
3 252 154 87
3 257 199 197
3 132 124 171
3 154 252 163
3 177 123 237
3 132 199 124
3 77 139 76
3 172 76 174
3 139 250 76
3 197 250 139
3 227 257 139
3 76 250 174
3 41 172 40
3 174 39 40
3 101 39 174
3 174 40 172
3 174 250 101
3 227 139 77
3 180 101 250
3 180 197 132
3 132 220 180
3 171 220 132
3 257 197 139
3 180 220 190
3 101 38 39
3 38 101 190
3 190 37 38
3 80 37 190
3 101 180 190
3 190 220 80
3 180 250 197
3 199 132 197
3 155 100 177
3 165 218 182
3 155 229 202
3 229 155 177
3 108 178 202
3 194 202 229
3 97 194 229
3 155 202 178
3 236 171 124
3 236 118 178
3 178 84 236
3 108 84 178
3 118 155 178
3 113 236 84
3 202 194 108
3 155 118 100
3 207 108 194
3 207 213 27
3 27 28 207
3 213 26 27
3 207 28 89
3 89 84 108
3 84 89 198
3 89 29 198
3 89 108 207
3 28 29 89
3 198 29 30
3 207 194 213
3 114 229 177
3 113 84 198
3 162 80 220
3 162 171 113
3 113 228 162
3 228 113 242
3 236 113 171
3 162 228 68
3 80 36 37
3 36 80 68
3 68 35 36
3 191 35 68
3 80 162 68
3 68 228 191
3 220 171 162
3 128 191 228
3 128 242 31
3 30 31 242
3 113 198 242
3 128 31 32
3 191 34 35
3 34 191 33
3 33 191 128
3 33 2 34
3 128 32 33
3 128 228 242
3 30 242 198
3 124 118 236
3 213 194 97
3 245 11 147
POINT_DATA 260
SCALARS U float 1
LOOKUP_TABLE default
-8525247624.033191
77999690973.422180
-57261810963.965843
-113635316375.192032
-14202923458.858101
96771860778.575089
39584254016.282135
-164639775762.621948
241357874989.527985
215605767544.881104
-662855793904.074829
1050923021174.658569
-713356270113.371582
391631536335.781250
58733446211.824707
101757594448.280594
-27368378697.532787
209247592731.978577
86775997529.406937
87950686193.217529
230112440687.289703
-13300302063.783121
-95564130665.947433
738484037049.902344
-789997588972.470825
683735118985.294678
96297493348.088211
-370959054323.001770
406882218090.882507
199632412773.663239
-399302465206.656067
501790921613.599731
-192747583817.369446
186424486935.499298
162714655828.654877
-121463750080.190063
204104864097.811890
51239814655.861198
-590449905659.195435
1367941260119.176514
-1698364235682.135742
1254732193401.677246
-320541247349.467224
-409772008049.091614
394166606953.811890
-34227220691.813175
-318695890029.127686
173724192219.506683
-72046003724.138565
-80035457543.645050
200250483665.740509
-434361206136.943237
187293448247.682922
132099168159.270523
-564123943173.317993
635935131826.782593
-598842515985.222046
353115957344.442017
-160625371253.460846
-101001741533.974091
259845165670.547791
-315040921919.762268
193195982182.188812
-39817505330.978561
486523565285.878235
-508548567748.374023
-217899332144.314209
1028128895602.245361
1107004260291.519043
-1347328690499.417236
-346959378893.652527
724094639373.037598
-1839214844630.038086
-433666319795.985596
2414724412458.032227
1699236434705.791260
335024352230.356262
-166943977906.343292
807644140781.215820
1839300134224.968018
-1502256499293.014160
-1198216668171.948242
-820828613050.816895
-12106278893.719587
875829932190.934937
1036692350661.192993
-415337718997.774597
441925455899.634216
2016512273223.993408
-1051280184869.903076
-1092291471049.972290
-269225390283.112457
375595310443.267944
431205895816.534607
-240267872186.504028
-951609529163.774902
198375319073.918121
-78750316445.175232
1160661108327.675049
-810446383674.436401
-304107011528.191223
-713918380010.371582
-1091218964049.974731
-325072651805.136230
-1356925018423.830811
1306885901729.668457
-645670588267.782593
272563426512.872711
82986055805.010117
-368643977317.037842
-1259520794410.312012
2776128952847.495117
403730835391.103577
-808059858533.214111
-49412891055.300537
-870690103156.937988
-779098129580.931885
-1130569361035.872314
228347118798.700470
-266916789406.092194
1163510843043.495117
285608696639.077026
666122583643.446045
2201401630146.951660
-734608470086.386230
-486792905174.147095
306259953033.348450
58508286721.927696
589856773749.101807
-1077687079641.167358
429318036885.597351
82993380903.622894
-1365375438538.118896
-600701248632.793945
-1078005869722.161133
-2676202658275.404297
-2168139271549.298340
-187879872789.302460
-760751904521.350098
-342775290282.283142
-466672788859.247009
1176910299822.807373
69161115493.379013
494418990443.511902
-71833360936.735916
-2751272205616.944336
1241941160563.666504
768897482630.368042
1957352851535.912109
-361766251955.077515
1004941784347.997192
821899671057.877075
-2625001696718.364746
-403388883717.207947
-164861456151.797638
-263204347182.464874
565386323884.430542
684584037853.438110
-1207561263682.355713
1046304504900.346924
148979459785.303467
230212831813.598053
93714152335.834869
-562485444873.461792
-606157704469.185913
-676207778362.253540
-772274481069.676758
1268939078483.675781
468293875550.787109
-297797602568.595703
-286880850536.168579
254303041203.107544
1009986652628.064087
1204920429434.147461
-576418507665.206421
747515916177.794312
-1603347370786.109131
-207871893534.812592
-763630817131.852173
-106440564911.823074
1379369385871.829346
-17578216423.244022
2035944364912.447510
-343400343823.580994
665354129708.072021
893310209913.320923
2171376338721.336670
176353160770.984650
255832255179.263824
1928022121862.602539
1231085328064.137207
-562428448809.105225
2343116273419.160645
80412872850.457565
101764931952.032120
-443721410984.843262
-499810848016.167908
-220043857655.994324
1671262941863.727295
2575507517517.518066
-354037929081.646057
1221352314217.773926
695712865502.264404
1075065571205.855835
617206177382.800171
-709148367085.147827
292685809215.296204
545403225692.750610
-920508027917.082764
405898793243.602905
1044972029451.205566
-431077938252.506042
-1859025894826.580322
463000139437.731018
296689231433.955200
-356132661665.070740
98090662639.507690
172110032394.619171
707442803212.841187
260726049796.339355
168336617253.387421
-508198320155.808350
-1392004425069.934570
-580299388171.563354
-75704443854.950882
761766471127.266113
-113699893918.595963
-64140674724.240860
1002478797831.211060
231597699418.244568
280016256577.458618
-164211568707.505493
968788494081.820557
1684583189882.289795
582581847599.031616
-637592698788.261475
785550054102.521729
49232781836.571564
-1215328980623.396973
804776476561.708740
-206189110345.904449
1014261154309.727905
-1176506976638.757324
-453493812059.268066
1557699699458.861816
365892309404.726013
-1062321330578.774170
-1123600971604.447266
549747140103.566956
1132863586306.812744
-50709569490.414597
-1064411819908.697632
-263491653113.895905
42436279436.199821
1011643620493.643555
-1680083943858.014893
-702914249451.048950
-1750886043467.095215
87136617921.429672
-307665971494.512512
