# vtk DataFile Version 2.0
patchtest_tri3_mix
ASCII
DATASET POLYDATA
POINTS 20 float
0.000000 0.000000 0.000000
1.000000 0.000000 0.000000
1.000000 1.000000 0.000000
0.000000 1.000000 0.000000
0.333333 0.000000 0.000000
0.666667 0.000000 0.000000
1.000000 0.333333 0.000000
1.000000 0.666667 0.000000
0.666667 1.000000 0.000000
0.333333 1.000000 0.000000
0.000000 0.666667 0.000000
0.000000 0.333333 0.000000
0.237231 0.491576 0.000000
0.759129 0.250780 0.000000
0.756437 0.535070 0.000000
0.535077 0.756439 0.000000
0.490018 0.490024 0.000000
0.250786 0.759126 0.000000
0.491579 0.237235 0.000000
0.222254 0.222252 0.000000
POLYGONS 26 104
3 11 0 19
3 18 12 19
3 4 19 0
3 18 19 4
3 11 19 12
3 16 12 18
3 3 10 17
3 16 17 12
3 9 17 15
3 17 9 3
3 12 17 10
3 10 11 12
3 17 16 15
3 18 5 13
3 5 18 4
3 13 1 6
3 1 13 5
3 13 14 16
3 14 13 6
3 15 8 9
3 8 15 7
3 7 2 8
3 7 14 6
3 7 15 14
3 16 14 15
3 16 18 13
POINT_DATA 20
SCALARS U float 1
LOOKUP_TABLE default
-0.000000
1.000000
2.000000
1.000000
0.333333
0.666667
1.333333
1.666667
1.666667
1.333333
0.666667
0.333333
0.728807
1.009910
1.291507
1.291516
0.980042
1.009912
0.728815
0.444506
