# vtk DataFile Version 2.0
patchtest_tri3_mix
ASCII
DATASET POLYDATA
POINTS 150 float
0.000000 -6.000000 0.000000
48.000000 -6.000000 0.000000
48.000000 6.000000 0.000000
0.000000 6.000000 0.000000
2.000000 -6.000000 0.000000
4.000000 -6.000000 0.000000
6.000000 -6.000000 0.000000
8.000000 -6.000000 0.000000
10.000000 -6.000000 0.000000
12.000000 -6.000000 0.000000
14.000000 -6.000000 0.000000
16.000000 -6.000000 0.000000
18.000000 -6.000000 0.000000
20.000000 -6.000000 0.000000
22.000000 -6.000000 0.000000
24.000000 -6.000000 0.000000
26.000000 -6.000000 0.000000
28.000000 -6.000000 0.000000
30.000000 -6.000000 0.000000
32.000000 -6.000000 0.000000
34.000000 -6.000000 0.000000
36.000000 -6.000000 0.000000
38.000000 -6.000000 0.000000
40.000000 -6.000000 0.000000
42.000000 -6.000000 0.000000
44.000000 -6.000000 0.000000
46.000000 -6.000000 0.000000
48.000000 -4.000000 0.000000
48.000000 -2.000000 0.000000
48.000000 -0.000000 0.000000
48.000000 2.000000 0.000000
48.000000 4.000000 0.000000
46.000000 6.000000 0.000000
44.000000 6.000000 0.000000
42.000000 6.000000 0.000000
40.000000 6.000000 0.000000
38.000000 6.000000 0.000000
36.000000 6.000000 0.000000
34.000000 6.000000 0.000000
32.000000 6.000000 0.000000
30.000000 6.000000 0.000000
28.000000 6.000000 0.000000
26.000000 6.000000 0.000000
24.000000 6.000000 0.000000
22.000000 6.000000 0.000000
20.000000 6.000000 0.000000
18.000000 6.000000 0.000000
16.000000 6.000000 0.000000
14.000000 6.000000 0.000000
12.000000 6.000000 0.000000
10.000000 6.000000 0.000000
8.000000 6.000000 0.000000
6.000000 6.000000 0.000000
4.000000 6.000000 0.000000
2.000000 6.000000 0.000000
0.000000 4.000000 0.000000
0.000000 2.000000 0.000000
0.000000 0.000000 0.000000
0.000000 -2.000000 0.000000
0.000000 -4.000000 0.000000
23.230931 -1.171837 0.000000
11.605508 -1.068806 0.000000
45.580313 -3.752723 0.000000
34.127540 1.251217 0.000000
25.848528 3.548814 0.000000
4.685159 -1.091820 0.000000
21.781469 -3.596321 0.000000
43.595845 3.624549 0.000000
37.848356 -3.611460 0.000000
7.625271 -3.543874 0.000000
41.731343 3.639554 0.000000
20.825032 1.155253 0.000000
41.445536 -3.643913 0.000000
29.961431 -3.580519 0.000000
27.859780 3.550627 0.000000
39.679218 1.213859 0.000000
43.535857 -1.179003 0.000000
6.993345 1.249798 0.000000
14.440278 -3.542310 0.000000
45.596248 1.644330 0.000000
18.141813 3.556339 0.000000
9.291788 -1.049801 0.000000
45.679235 3.671302 0.000000
45.671056 -1.907125 0.000000
19.932937 -3.563426 0.000000
13.877334 1.221574 0.000000
38.619372 -1.206242 0.000000
18.545951 -1.133789 0.000000
16.213974 -1.107393 0.000000
6.982811 -1.095747 0.000000
23.718106 -3.557756 0.000000
27.807562 -1.186441 0.000000
16.083124 3.560842 0.000000
31.970234 3.599080 0.000000
16.170499 1.193066 0.000000
20.890298 -1.159715 0.000000
9.354823 -3.474357 0.000000
32.086516 1.224411 0.000000
43.375086 -3.630998 0.000000
36.064974 1.263434 0.000000
36.986849 -1.151466 0.000000
18.493304 1.176342 0.000000
2.381045 -1.109340 0.000000
2.260372 -3.536773 0.000000
27.771113 1.160870 0.000000
41.432651 1.205684 0.000000
5.884521 -3.554192 0.000000
4.693948 1.245678 0.000000
35.350781 -1.187977 0.000000
29.928789 -1.189271 0.000000
27.844197 -3.567911 0.000000
2.384046 3.598724 0.000000
9.381418 3.596905 0.000000
4.694643 3.582356 0.000000
39.647882 -3.641364 0.000000
29.980049 1.184841 0.000000
11.702326 3.596488 0.000000
9.291901 1.273735 0.000000
11.065091 -3.506066 0.000000
16.218845 -3.503628 0.000000
11.586435 1.262398 0.000000
29.908192 3.570532 0.000000
31.899953 -1.188984 0.000000
13.892480 -1.110308 0.000000
25.474164 1.158254 0.000000
36.093207 3.635872 0.000000
22.012240 3.568778 0.000000
2.394954 1.259048 0.000000
39.969522 3.631333 0.000000
37.935451 1.258906 0.000000
38.086441 3.644514 0.000000
41.924287 -1.233826 0.000000
40.253584 -1.215156 0.000000
34.066755 -3.614910 0.000000
4.117685 -3.523021 0.000000
18.072953 -3.546264 0.000000
32.043685 -3.599457 0.000000
23.163529 1.148268 0.000000
7.035557 3.583390 0.000000
25.570789 -1.163844 0.000000
13.946684 3.573091 0.000000
34.030456 3.627201 0.000000
25.740805 -3.558147 0.000000
12.730565 -3.558573 0.000000
23.893848 3.573478 0.000000
20.119572 3.573625 0.000000
43.287192 1.258858 0.000000
33.673554 -1.177429 0.000000
36.008343 -3.610489 0.000000
45.612194 -0.039003 0.000000
POLYGONS 238 952
3 0 4 59
3 5 103 4
3 59 4 103
3 6 7 69
3 6 69 106
3 96 69 7
3 96 7 8
3 106 69 89
3 6 106 5
3 106 134 5
3 103 134 102
3 103 5 134
3 58 102 57
3 102 58 103
3 134 65 102
3 103 58 59
3 81 96 118
3 81 89 69
3 107 65 89
3 134 106 65
3 69 96 81
3 118 61 81
3 118 143 61
3 106 89 65
3 118 96 8
3 102 65 127
3 8 9 118
3 143 9 10
3 119 11 12
3 78 10 11
3 13 14 66
3 13 66 84
3 90 66 14
3 90 14 15
3 84 66 95
3 13 84 12
3 12 84 135
3 143 78 123
3 143 10 78
3 78 88 123
3 88 78 119
3 88 119 135
3 61 123 85
3 11 119 78
3 143 123 61
3 95 87 84
3 12 135 119
3 71 87 95
3 87 135 84
3 95 66 60
3 88 87 101
3 137 60 124
3 135 87 88
3 60 66 90
3 60 137 95
3 60 90 139
3 9 143 118
3 94 123 88
3 102 127 57
3 65 107 127
3 127 111 56
3 127 56 57
3 127 107 113
3 77 81 117
3 77 107 89
3 117 138 77
3 77 138 113
3 120 117 81
3 112 117 120
3 61 120 81
3 77 113 107
3 81 77 89
3 111 127 113
3 55 111 54
3 111 55 56
3 54 3 55
3 53 54 111
3 113 53 111
3 138 112 51
3 112 138 117
3 51 52 138
3 50 51 112
3 50 112 116
3 52 53 113
3 138 52 113
3 112 120 116
3 85 94 92
3 120 61 85
3 47 140 92
3 92 140 85
3 94 80 92
3 85 140 116
3 71 137 126
3 101 87 71
3 80 101 145
3 101 80 94
3 71 145 101
3 92 80 46
3 137 144 126
3 85 123 94
3 101 94 88
3 71 126 145
3 116 49 50
3 116 140 49
3 49 140 48
3 46 47 92
3 140 47 48
3 126 44 145
3 44 126 144
3 44 45 145
3 43 44 144
3 43 144 64
3 45 46 80
3 45 80 145
3 144 137 124
3 85 116 120
3 95 137 71
3 142 90 15
3 110 16 17
3 18 19 136
3 73 17 18
3 20 21 133
3 147 136 133
3 133 136 20
3 148 133 21
3 108 133 148
3 21 68 148
3 20 136 19
3 136 73 18
3 142 110 91
3 142 16 110
3 104 139 91
3 91 139 142
3 110 109 91
3 142 139 90
3 109 73 122
3 73 109 110
3 136 122 73
3 136 147 122
3 63 147 108
3 109 122 115
3 133 108 147
3 104 91 109
3 17 73 110
3 122 147 97
3 148 100 108
3 16 142 15
3 114 22 23
3 98 72 24
3 24 72 23
3 114 23 72
3 25 26 62
3 26 27 62
3 27 26 1
3 62 27 28
3 98 24 25
3 98 25 62
3 68 114 86
3 114 68 22
3 129 100 86
3 86 100 68
3 132 86 114
3 132 75 86
3 72 132 114
3 100 148 68
3 62 83 98
3 83 62 28
3 98 76 131
3 76 98 83
3 149 76 83
3 132 131 105
3 83 28 29
3 132 72 131
3 72 98 131
3 76 146 131
3 68 21 22
3 100 99 108
3 124 104 64
3 124 139 104
3 64 74 42
3 74 64 104
3 104 115 74
3 64 42 43
3 74 115 121
3 63 97 147
3 100 129 99
3 108 99 63
3 125 63 99
3 141 97 63
3 97 115 122
3 93 115 97
3 104 109 115
3 125 99 129
3 121 93 40
3 121 115 93
3 42 74 41
3 40 41 121
3 93 39 40
3 41 74 121
3 141 125 37
3 141 93 97
3 38 39 141
3 37 38 141
3 37 125 36
3 141 39 93
3 125 141 63
3 125 129 130
3 64 144 124
3 75 105 128
3 75 132 105
3 146 70 105
3 128 105 70
3 131 146 105
3 75 128 130
3 149 29 79
3 29 149 83
3 82 67 79
3 67 146 79
3 30 79 29
3 82 79 30
3 79 146 149
3 129 86 75
3 67 70 146
3 128 35 130
3 35 128 70
3 35 36 130
3 34 35 70
3 67 34 70
3 130 36 125
3 82 31 32
3 31 82 30
3 32 33 82
3 2 32 31
3 34 67 33
3 67 82 33
3 75 130 129
3 146 76 149
3 139 124 60
POINT_DATA 150
SCALARS P float 1
LOOKUP_TABLE default
1010.518281
1.703171
-2.678112
-1009.818039
957.977431
915.246377
876.525127
832.014792
792.733208
749.038545
709.139887
666.311694
625.274037
583.060524
541.963774
499.965121
458.542979
416.618221
374.998806
333.433083
291.459707
250.141828
207.872213
167.256815
124.343380
84.650382
39.808000
-1.822481
1.235281
0.710429
-2.544835
3.271771
-38.743450
-85.560610
-123.594168
-167.482914
-207.613854
-250.423613
-291.409106
-333.459045
-374.888319
-416.754875
-458.358742
-500.088025
-541.712740
-583.073451
-625.153136
-666.209694
-708.762575
-749.253520
-792.579810
-832.109338
-876.485201
-915.476381
-958.234359
-653.547245
-341.748173
-0.558973
342.890682
652.281829
100.717140
134.689909
33.303329
-59.533513
-273.093699
166.834354
327.135711
-52.036829
128.873835
497.620988
-82.586730
-108.950747
85.078711
224.321570
-248.120247
-38.085262
20.622376
-176.804424
411.757350
-9.981645
-368.708722
141.783228
-33.421479
14.693154
347.673039
-145.042316
39.936258
116.115817
121.987310
154.951034
300.026556
83.312797
-394.774309
-200.098898
-131.679804
109.063149
465.725544
-67.790225
56.379433
-53.641884
42.600910
-120.740974
170.916530
565.054116
-81.512173
-24.265354
519.048847
-190.003828
53.768458
74.158192
249.584353
-573.397038
-482.035834
-537.263792
103.575048
-73.801556
-453.452183
-171.863845
449.471803
387.339887
-159.260689
-224.477994
67.225476
131.702691
-90.326519
-149.385453
-322.109741
-194.222183
-98.982289
-42.145992
-126.758358
23.968686
33.471522
175.380418
536.252512
368.077933
198.916824
-99.000547
-510.222528
90.401122
-422.382387
-176.338477
274.890142
436.603225
-298.950965
-346.018446
-23.260917
57.316646
149.386851
-1.825209
