# vtk DataFile Version 2.0
patchtest_tri3_mix
ASCII
DATASET POLYDATA
POINTS 340 float
0.000000 0.000000 0.000000
1.000000 0.000000 0.000000
1.000000 1.000000 0.000000
0.000000 1.000000 0.000000
0.062500 0.000000 0.000000
0.125000 0.000000 0.000000
0.187500 0.000000 0.000000
0.250000 0.000000 0.000000
0.312500 0.000000 0.000000
0.375000 0.000000 0.000000
0.437500 0.000000 0.000000
0.500000 0.000000 0.000000
0.562500 0.000000 0.000000
0.625000 0.000000 0.000000
0.687500 0.000000 0.000000
0.750000 0.000000 0.000000
0.812500 0.000000 0.000000
0.875000 0.000000 0.000000
0.937500 0.000000 0.000000
1.000000 0.062500 0.000000
1.000000 0.125000 0.000000
1.000000 0.187500 0.000000
1.000000 0.250000 0.000000
1.000000 0.312500 0.000000
1.000000 0.375000 0.000000
1.000000 0.437500 0.000000
1.000000 0.500000 0.000000
1.000000 0.562500 0.000000
1.000000 0.625000 0.000000
1.000000 0.687500 0.000000
1.000000 0.750000 0.000000
1.000000 0.812500 0.000000
1.000000 0.875000 0.000000
1.000000 0.937500 0.000000
0.937500 1.000000 0.000000
0.875000 1.000000 0.000000
0.812500 1.000000 0.000000
0.750000 1.000000 0.000000
0.687500 1.000000 0.000000
0.625000 1.000000 0.000000
0.562500 1.000000 0.000000
0.500000 1.000000 0.000000
0.437500 1.000000 0.000000
0.375000 1.000000 0.000000
0.312500 1.000000 0.000000
0.250000 1.000000 0.000000
0.187500 1.000000 0.000000
0.125000 1.000000 0.000000
0.062500 1.000000 0.000000
0.000000 0.937500 0.000000
0.000000 0.875000 0.000000
0.000000 0.812500 0.000000
0.000000 0.750000 0.000000
0.000000 0.687500 0.000000
0.000000 0.625000 0.000000
0.000000 0.562500 0.000000
0.000000 0.500000 0.000000
0.000000 0.437500 0.000000
0.000000 0.375000 0.000000
0.000000 0.312500 0.000000
0.000000 0.250000 0.000000
0.000000 0.187500 0.000000
0.000000 0.125000 0.000000
0.000000 0.062500 0.000000
0.165371 0.665798 0.000000
0.557433 0.167113 0.000000
0.454232 0.334281 0.000000
0.892988 0.113910 0.000000
0.531863 0.944354 0.000000
0.498734 0.778007 0.000000
0.835663 0.220693 0.000000
0.666922 0.611234 0.000000
0.892998 0.940914 0.000000
0.245696 0.887298 0.000000
0.111596 0.444618 0.000000
0.333772 0.165982 0.000000
0.055801 0.345322 0.000000
0.105583 0.822670 0.000000
0.055728 0.224790 0.000000
0.278906 0.552211 0.000000
0.055903 0.532802 0.000000
0.274668 0.724965 0.000000
0.593850 0.055616 0.000000
0.277816 0.166132 0.000000
0.368476 0.333741 0.000000
0.442704 0.723271 0.000000
0.833988 0.592441 0.000000
0.219789 0.699046 0.000000
0.389777 0.276109 0.000000
0.778249 0.557227 0.000000
0.158339 0.847338 0.000000
0.610519 0.666950 0.000000
0.167806 0.489990 0.000000
0.723749 0.500193 0.000000
0.054766 0.725204 0.000000
0.557980 0.278084 0.000000
0.556623 0.778081 0.000000
0.166486 0.165226 0.000000
0.501006 0.556831 0.000000
0.334268 0.556240 0.000000
0.278303 0.221082 0.000000
0.613464 0.777660 0.000000
0.672881 0.111705 0.000000
0.468361 0.055463 0.000000
0.342967 0.833984 0.000000
0.889369 0.816234 0.000000
0.185462 0.890626 0.000000
0.502420 0.445848 0.000000
0.890840 0.240653 0.000000
0.833903 0.775974 0.000000
0.628401 0.888853 0.000000
0.111846 0.504664 0.000000
0.889142 0.752611 0.000000
0.390718 0.502307 0.000000
0.055345 0.109277 0.000000
0.386691 0.111125 0.000000
0.108693 0.759325 0.000000
0.502420 0.277693 0.000000
0.331886 0.667168 0.000000
0.668809 0.277873 0.000000
0.779499 0.384743 0.000000
0.167257 0.384242 0.000000
0.945710 0.208902 0.000000
0.943015 0.839875 0.000000
0.893640 0.054458 0.000000
0.558894 0.389571 0.000000
0.269082 0.781795 0.000000
0.724408 0.221798 0.000000
0.717713 0.833753 0.000000
0.224238 0.449084 0.000000
0.724321 0.388591 0.000000
0.835341 0.279270 0.000000
0.167002 0.546273 0.000000
0.667628 0.555750 0.000000
0.947633 0.073077 0.000000
0.388797 0.612706 0.000000
0.276859 0.275987 0.000000
0.834814 0.339578 0.000000
0.110257 0.630228 0.000000
0.889204 0.561064 0.000000
0.166507 0.329890 0.000000
0.469343 0.833785 0.000000
0.531158 0.055843 0.000000
0.728246 0.111290 0.000000
0.406083 0.055503 0.000000
0.666146 0.666669 0.000000
0.111110 0.219727 0.000000
0.406175 0.944452 0.000000
0.779439 0.944578 0.000000
0.055236 0.596848 0.000000
0.501235 0.111856 0.000000
0.446882 0.446622 0.000000
0.657569 0.833050 0.000000
0.343246 0.944728 0.000000
0.890441 0.304981 0.000000
0.324137 0.331880 0.000000
0.818200 0.889840 0.000000
0.333345 0.275608 0.000000
0.053467 0.053620 0.000000
0.616542 0.111679 0.000000
0.053284 0.790240 0.000000
0.833308 0.833360 0.000000
0.222528 0.221768 0.000000
0.948612 0.950151 0.000000
0.941594 0.895161 0.000000
0.556552 0.556369 0.000000
0.945083 0.338288 0.000000
0.777830 0.614600 0.000000
0.216600 0.762266 0.000000
0.223510 0.391024 0.000000
0.166875 0.220222 0.000000
0.555710 0.611899 0.000000
0.777182 0.670745 0.000000
0.723139 0.555804 0.000000
0.783111 0.110362 0.000000
0.725131 0.166619 0.000000
0.056167 0.857846 0.000000
0.223741 0.509199 0.000000
0.778842 0.498854 0.000000
0.557295 0.500816 0.000000
0.055590 0.284604 0.000000
0.386692 0.723311 0.000000
0.891574 0.176619 0.000000
0.722496 0.611479 0.000000
0.691617 0.888974 0.000000
0.501539 0.222335 0.000000
0.890138 0.433309 0.000000
0.391223 0.447303 0.000000
0.613629 0.333613 0.000000
0.946422 0.142127 0.000000
0.721687 0.667161 0.000000
0.666076 0.722012 0.000000
0.445835 0.222108 0.000000
0.222113 0.166270 0.000000
0.944559 0.779965 0.000000
0.374296 0.889323 0.000000
0.055773 0.407172 0.000000
0.776964 0.055441 0.000000
0.408549 0.334914 0.000000
0.888926 0.624805 0.000000
0.469036 0.944402 0.000000
0.110935 0.274477 0.000000
0.656907 0.944350 0.000000
0.439973 0.778174 0.000000
0.754901 0.889557 0.000000
0.279785 0.496800 0.000000
0.221483 0.634655 0.000000
0.612089 0.555968 0.000000
0.283650 0.055827 0.000000
0.557329 0.222544 0.000000
0.330704 0.722528 0.000000
0.405849 0.834155 0.000000
0.324911 0.778232 0.000000
0.113399 0.889414 0.000000
0.334143 0.220855 0.000000
0.558399 0.333795 0.000000
0.777504 0.725551 0.000000
0.389821 0.166117 0.000000
0.218376 0.944977 0.000000
0.668849 0.444662 0.000000
0.220890 0.110708 0.000000
0.310952 0.889968 0.000000
0.276537 0.667115 0.000000
0.437677 0.889089 0.000000
0.944883 0.466009 0.000000
0.944112 0.655949 0.000000
0.055581 0.166296 0.000000
0.444457 0.612674 0.000000
0.280066 0.943819 0.000000
0.499176 0.667699 0.000000
0.274963 0.332129 0.000000
0.050853 0.921757 0.000000
0.613330 0.167017 0.000000
0.109060 0.055157 0.000000
0.554868 0.667411 0.000000
0.780044 0.275234 0.000000
0.446284 0.501981 0.000000
0.335629 0.445046 0.000000
0.836008 0.055386 0.000000
0.443414 0.667992 0.000000
0.447991 0.391269 0.000000
0.610233 0.722371 0.000000
0.055835 0.469768 0.000000
0.504541 0.333997 0.000000
0.279184 0.387831 0.000000
0.613377 0.278010 0.000000
0.834318 0.528721 0.000000
0.167563 0.436946 0.000000
0.669140 0.389063 0.000000
0.503766 0.390317 0.000000
0.224345 0.055604 0.000000
0.222548 0.571210 0.000000
0.724274 0.277134 0.000000
0.335527 0.389645 0.000000
0.718458 0.944302 0.000000
0.557942 0.445249 0.000000
0.165906 0.110074 0.000000
0.668279 0.500211 0.000000
0.669023 0.777447 0.000000
0.724262 0.444427 0.000000
0.717077 0.055936 0.000000
0.668714 0.222408 0.000000
0.613402 0.444889 0.000000
0.275662 0.110947 0.000000
0.890052 0.369050 0.000000
0.668866 0.333439 0.000000
0.594606 0.944239 0.000000
0.445782 0.166639 0.000000
0.779436 0.329594 0.000000
0.443658 0.111412 0.000000
0.532812 0.833977 0.000000
0.501649 0.166928 0.000000
0.613038 0.222475 0.000000
0.723728 0.778635 0.000000
0.390022 0.221164 0.000000
0.096502 0.948133 0.000000
0.838290 0.109677 0.000000
0.278029 0.608908 0.000000
0.669222 0.167047 0.000000
0.945283 0.273988 0.000000
0.836507 0.164390 0.000000
0.111605 0.386375 0.000000
0.655930 0.055819 0.000000
0.559363 0.112003 0.000000
0.166074 0.604999 0.000000
0.279900 0.442282 0.000000
0.881318 0.880287 0.000000
0.779490 0.441273 0.000000
0.110809 0.165080 0.000000
0.944945 0.402161 0.000000
0.833209 0.655279 0.000000
0.166376 0.275120 0.000000
0.163214 0.727789 0.000000
0.389807 0.557463 0.000000
0.780226 0.220723 0.000000
0.221854 0.334067 0.000000
0.109382 0.694092 0.000000
0.595683 0.833658 0.000000
0.110863 0.566944 0.000000
0.944514 0.529775 0.000000
0.110599 0.110151 0.000000
0.445425 0.557334 0.000000
0.776452 0.834698 0.000000
0.054936 0.660799 0.000000
0.281624 0.835730 0.000000
0.155974 0.941499 0.000000
0.613969 0.389264 0.000000
0.381952 0.778404 0.000000
0.889703 0.497307 0.000000
0.721793 0.722842 0.000000
0.835103 0.401770 0.000000
0.500958 0.889022 0.000000
0.564482 0.889041 0.000000
0.554381 0.722884 0.000000
0.944334 0.593028 0.000000
0.835104 0.464937 0.000000
0.500100 0.612285 0.000000
0.111304 0.329843 0.000000
0.888449 0.688703 0.000000
0.780949 0.165776 0.000000
0.838757 0.943435 0.000000
0.163585 0.790418 0.000000
0.944145 0.718279 0.000000
0.446028 0.277573 0.000000
0.330745 0.110987 0.000000
0.832993 0.716769 0.000000
0.166045 0.055272 0.000000
0.221565 0.277608 0.000000
0.612785 0.500441 0.000000
0.724056 0.332768 0.000000
0.498534 0.723061 0.000000
0.344383 0.055633 0.000000
0.218459 0.828105 0.000000
0.335247 0.500635 0.000000
0.391870 0.392629 0.000000
0.501805 0.501347 0.000000
0.387644 0.668016 0.000000
0.611311 0.611471 0.000000
0.333197 0.611808 0.000000
0.778799 0.780119 0.000000
POLYGONS 614 2456
3 63 0 158
3 158 4 233
3 4 158 0
3 233 4 5
3 63 158 114
3 114 158 233
3 61 62 226
3 114 300 226
3 300 114 233
3 226 300 288
3 114 226 62
3 62 63 114
3 78 61 226
3 233 326 300
3 300 256 288
3 300 326 256
3 220 326 250
3 6 326 5
3 250 326 6
3 326 220 256
3 256 220 97
3 288 97 146
3 97 288 256
3 146 97 170
3 288 146 226
3 170 193 162
3 193 170 97
3 162 193 83
3 146 170 201
3 97 220 193
3 291 170 162
3 220 263 193
3 326 233 5
3 78 226 146
3 59 60 180
3 76 180 317
3 78 180 60
3 201 180 78
3 180 76 59
3 60 61 78
3 59 76 58
3 57 58 196
3 57 242 56
3 242 57 196
3 74 242 196
3 80 56 242
3 58 76 196
3 196 76 281
3 281 76 317
3 317 201 291
3 291 327 140
3 201 170 291
3 140 327 295
3 291 140 317
3 78 146 201
3 317 140 121
3 247 74 281
3 74 196 281
3 281 317 121
3 247 281 121
3 92 247 129
3 121 169 247
3 295 169 121
3 247 92 74
3 140 295 121
3 242 74 111
3 295 327 230
3 317 180 201
3 162 327 291
3 74 92 111
3 327 162 136
3 250 7 208
3 7 250 6
3 324 263 208
3 208 263 250
3 8 208 7
3 331 324 208
3 263 83 193
3 100 162 83
3 100 83 75
3 75 214 100
3 75 324 115
3 214 75 217
3 75 83 324
3 83 263 324
3 157 100 214
3 208 8 331
3 136 162 100
3 9 144 331
3 144 9 10
3 10 11 103
3 150 269 103
3 10 103 144
3 144 103 269
3 115 217 75
3 331 144 115
3 217 115 269
3 217 274 214
3 217 267 274
3 267 217 269
3 150 267 269
3 274 267 192
3 144 269 115
3 324 331 115
3 267 271 192
3 9 331 8
3 88 214 274
3 230 136 155
3 230 169 295
3 230 155 244
3 155 136 157
3 253 155 84
3 244 155 253
3 100 157 136
3 230 244 169
3 129 285 205
3 285 129 169
3 92 129 177
3 169 129 247
3 237 205 285
3 285 169 244
3 237 285 253
3 205 237 333
3 244 253 285
3 205 177 129
3 155 157 84
3 327 136 230
3 198 84 88
3 88 84 157
3 323 117 66
3 192 185 323
3 88 323 198
3 192 323 88
3 157 214 88
3 66 198 323
3 237 334 187
3 253 334 237
3 187 334 151
3 237 187 333
3 240 151 334
3 240 198 66
3 151 335 236
3 240 334 198
3 84 198 334
3 333 187 113
3 240 107 151
3 334 253 84
3 192 88 274
3 236 187 151
3 249 240 66
3 250 263 220
3 79 205 333
3 54 55 149
3 138 296 303
3 149 303 54
3 80 149 55
3 149 138 303
3 55 56 80
3 54 303 53
3 52 53 94
3 94 296 116
3 94 53 303
3 116 296 292
3 52 94 160
3 303 296 94
3 160 94 116
3 149 80 298
3 298 111 132
3 111 298 80
3 132 177 251
3 132 111 92
3 222 87 206
3 298 132 284
3 177 132 92
3 284 132 251
3 64 292 296
3 64 138 284
3 292 64 87
3 64 296 138
3 206 87 64
3 206 284 251
3 81 168 87
3 206 64 284
3 138 298 284
3 116 292 321
3 277 206 251
3 298 138 149
3 80 242 111
3 168 292 87
3 50 51 176
3 160 77 176
3 160 116 77
3 213 231 176
3 160 176 51
3 51 52 160
3 50 176 231
3 3 49 48
3 231 275 48
3 213 275 231
3 48 275 47
3 231 48 49
3 49 50 231
3 176 77 213
3 90 321 332
3 90 213 77
3 332 304 73
3 168 126 332
3 90 332 106
3 168 332 321
3 116 321 77
3 106 332 73
3 305 47 275
3 305 213 106
3 47 305 46
3 305 275 213
3 218 46 305
3 218 106 73
3 46 218 45
3 218 305 106
3 213 90 106
3 73 228 218
3 90 77 321
3 292 168 321
3 251 177 79
3 222 277 338
3 222 206 277
3 99 338 277
3 79 333 99
3 336 338 135
3 99 277 79
3 222 81 87
3 222 338 118
3 212 81 210
3 81 222 210
3 118 336 181
3 336 118 338
3 181 336 85
3 118 181 210
3 222 118 210
3 181 307 210
3 338 99 293
3 168 81 126
3 293 113 301
3 293 135 338
3 316 301 98
3 236 301 113
3 236 98 301
3 293 301 227
3 113 187 236
3 227 301 316
3 239 85 336
3 239 135 227
3 85 239 330
3 239 336 135
3 229 330 239
3 229 227 316
3 313 69 330
3 229 239 227
3 135 293 227
3 203 181 85
3 229 313 330
3 293 99 113
3 177 205 79
3 69 85 330
3 73 304 221
3 304 126 212
3 104 211 195
3 307 104 212
3 304 104 221
3 212 104 304
3 126 81 212
3 221 104 195
3 44 45 228
3 45 218 228
3 228 73 221
3 153 228 221
3 44 153 43
3 153 44 228
3 147 43 153
3 221 195 153
3 153 195 147
3 332 126 304
3 223 195 211
3 211 307 203
3 203 69 141
3 307 181 203
3 311 141 270
3 203 141 211
3 212 210 307
3 211 141 223
3 42 147 200
3 147 195 223
3 200 147 223
3 147 42 43
3 41 200 68
3 311 200 223
3 68 200 311
3 200 41 42
3 223 141 311
3 270 141 69
3 211 104 307
3 85 69 203
3 234 229 316
3 251 79 277
3 99 333 113
3 142 103 11
3 150 142 283
3 142 150 103
3 142 82 283
3 82 142 12
3 82 12 13
3 232 283 159
3 142 11 12
3 150 283 65
3 185 271 65
3 185 192 271
3 65 232 272
3 65 271 150
3 272 232 261
3 185 65 209
3 283 232 65
3 209 65 272
3 283 82 159
3 185 117 323
3 282 159 82
3 282 13 14
3 282 260 102
3 260 14 15
3 143 260 197
3 260 282 14
3 102 260 143
3 278 261 232
3 278 159 102
3 261 278 127
3 278 232 159
3 175 127 278
3 175 102 143
3 294 127 175
3 175 278 102
3 159 282 102
3 261 127 252
3 127 235 252
3 282 82 13
3 272 261 245
3 117 209 95
3 209 117 185
3 95 245 215
3 95 209 272
3 125 215 188
3 117 95 243
3 245 95 272
3 243 95 215
3 107 249 255
3 240 249 107
3 125 255 249
3 125 243 215
3 262 255 125
3 125 249 243
3 243 249 66
3 255 179 107
3 188 215 245
3 117 243 66
3 245 265 188
3 265 245 119
3 119 329 265
3 329 119 252
3 329 252 268
3 265 329 130
3 261 119 245
3 188 265 306
3 262 306 219
3 262 125 306
3 219 306 248
3 262 328 255
3 248 130 259
3 248 306 265
3 287 259 130
3 248 259 219
3 265 130 248
3 219 257 262
3 329 120 130
3 306 125 188
3 261 252 119
3 259 93 219
3 319 175 143
3 107 335 151
3 197 174 143
3 197 15 16
3 16 17 238
3 276 238 124
3 16 238 197
3 197 238 174
3 319 174 280
3 319 143 174
3 67 280 276
3 280 70 319
3 276 280 174
3 70 280 182
3 174 238 276
3 319 70 294
3 17 124 238
3 319 294 175
3 124 18 134
3 18 124 17
3 18 19 134
3 19 18 1
3 134 19 20
3 124 134 67
3 122 182 189
3 182 280 67
3 189 182 67
3 70 182 108
3 189 20 21
3 189 67 134
3 189 21 122
3 134 20 189
3 122 21 22
3 67 276 124
3 108 182 122
3 268 235 131
3 252 235 268
3 131 137 268
3 70 131 235
3 264 137 154
3 235 294 70
3 294 235 127
3 268 137 120
3 287 120 310
3 130 120 287
3 120 137 310
3 287 310 315
3 315 186 308
3 310 186 315
3 186 310 264
3 287 315 178
3 137 264 310
3 287 178 259
3 137 131 154
3 329 268 120
3 154 108 279
3 108 154 131
3 279 22 23
3 279 108 122
3 154 279 166
3 70 108 131
3 166 279 23
3 186 289 224
3 186 264 289
3 224 289 25
3 186 224 308
3 24 25 289
3 24 166 23
3 24 289 166
3 166 289 264
3 308 224 299
3 166 264 154
3 22 279 122
3 26 224 25
3 197 260 15
3 308 246 315
3 98 335 165
3 98 236 335
3 165 179 207
3 179 165 335
3 207 179 328
3 98 165 171
3 335 107 179
3 337 165 207
3 234 171 91
3 234 316 171
3 191 241 91
3 91 241 234
3 337 91 171
3 337 145 91
3 171 165 337
3 234 241 313
3 337 207 71
3 234 313 229
3 133 71 207
3 133 328 257
3 257 93 173
3 257 219 93
3 183 167 190
3 257 173 133
3 262 257 328
3 133 173 183
3 190 191 145
3 191 91 145
3 145 337 71
3 190 145 71
3 216 273 309
3 183 190 71
3 309 190 172
3 190 309 191
3 71 133 183
3 241 191 101
3 89 183 173
3 328 133 207
3 255 328 179
3 258 191 309
3 69 96 270
3 69 313 96
3 96 101 297
3 96 313 241
3 297 110 312
3 96 297 270
3 101 96 241
3 270 297 312
3 68 40 41
3 40 68 266
3 266 39 40
3 110 266 312
3 202 39 266
3 266 68 312
3 311 312 68
3 297 101 152
3 311 270 312
3 184 110 152
3 110 297 152
3 258 273 128
3 101 191 258
3 204 128 302
3 258 128 152
3 101 258 152
3 184 152 128
3 38 202 254
3 184 202 110
3 254 202 184
3 202 38 39
3 37 254 148
3 204 254 184
3 148 254 204
3 254 37 38
3 184 128 204
3 302 128 273
3 110 202 266
3 309 273 258
3 173 93 89
3 171 316 98
3 167 89 86
3 167 172 190
3 246 86 89
3 178 315 246
3 199 290 86
3 246 89 178
3 89 93 178
3 167 86 290
3 339 273 216
3 216 172 325
3 325 290 318
3 290 325 172
3 199 318 290
3 112 325 318
3 172 167 290
3 109 216 325
3 86 246 139
3 167 183 89
3 139 314 199
3 314 139 299
3 299 26 27
3 139 308 299
3 299 27 314
3 246 308 139
3 314 27 28
3 225 322 318
3 199 314 225
3 322 225 29
3 225 318 199
3 28 29 225
3 29 30 322
3 314 28 225
3 112 318 322
3 139 199 86
3 26 299 224
3 30 194 322
3 302 339 161
3 302 273 339
3 105 161 109
3 109 161 339
3 109 339 216
3 286 161 105
3 325 112 109
3 302 161 156
3 36 148 320
3 148 204 156
3 320 148 156
3 148 36 37
3 35 320 72
3 286 320 156
3 286 72 320
3 320 35 36
3 156 161 286
3 112 105 109
3 156 204 302
3 286 123 164
3 123 105 194
3 31 32 123
3 31 194 30
3 31 123 194
3 105 112 194
3 164 123 32
3 34 72 163
3 72 286 164
3 163 72 164
3 72 34 35
3 163 33 2
3 33 163 164
3 163 2 34
3 164 32 33
3 286 105 123
3 112 322 194
3 216 309 172
3 93 259 178
3 267 150 271
POINT_DATA 340
SCALARS P float 1
LOOKUP_TABLE default
486750912.995371
2516413140.805817
7110924390.552739
3155190945.425873
568175275.679899
654509680.320635
747570984.017021
846622603.746078
952048051.456714
1063341352.754306
1180937712.016939
1304795915.696644
1434889012.691040
1570853117.836260
1713082109.486445
1861784107.630518
2016072894.339351
2177609960.172132
2343427484.254614
2736084790.077168
2962477537.454313
3199798226.080189
3445506880.464513
3699939524.382381
3964210101.173707
4237555670.109685
4519759071.384007
4810944792.243240
5111728728.728915
5421592678.621636
5740235401.208569
6068306733.372308
6405506282.555182
6751214501.450986
6813596112.405755
6527045474.930490
6246337321.005376
5971486259.446513
5703287346.596843
5440871216.099234
5184582132.328427
4934762013.692302
4691119769.421125
4453438125.711627
4221568685.943605
3996917373.721778
3777423679.941032
3564467739.016222
3357755678.833871
2923198623.366444
2694690778.000345
2478406413.740209
2270702363.869432
2071055372.645778
1881730994.180806
1701278385.799459
1529689366.956083
1367251862.028371
1214170576.776901
1070344924.824878
935326976.476282
809594380.897035
692844128.984410
585829913.892641
2442579951.084570
1885924878.127787
2137093320.231761
2605474590.143911
4794381201.570754
3922209410.264234
2816999261.249906
3802058028.165269
6284975169.783455
3510148588.933035
1628658954.045568
1376486699.905966
1253080429.189035
2819169812.331606
979007478.092489
2375164437.861844
1747359327.248836
2971827665.215718
1652290207.254281
1262598185.831212
1918460802.434947
3502558026.057863
4318694253.491646
2712935272.244213
1800263650.101692
3962254110.252679
3072200766.393616
3841217337.450037
1891190737.199325
3536355831.462089
2336776427.359536
2230428577.197817
4128970765.982792
1047997202.954192
3040262013.502955
2543199161.377584
1400315588.448515
4335065470.767769
2005585525.329919
1377798367.718298
3619227562.278652
5612464095.504813
3325218493.060495
2640942575.338789
3059165820.766572
5181457280.275772
4908311101.447557
1798940015.501427
5290407526.444138
2517562081.133783
747629614.920391
1348338296.949625
2603425008.106037
2084060715.776910
2932291307.757648
2533727442.415052
3259752051.612800
1589098674.161591
3109779418.148671
5964670114.732389
2404754371.108571
2606812067.481673
3169704255.753130
2498610741.004704
4996755234.496228
1907679443.723259
3099685492.349509
3032130628.335286
2059876663.210682
3574410430.080229
2620344874.645235
2904266146.120070
1540628339.540782
3261525318.904215
2176766805.758072
4382012042.762862
1443036113.076138
4058393625.868237
1512855051.405707
2146151670.491116
1250953429.037601
4036331943.847217
1067525861.082523
4317687690.331435
5807987136.894794
1933136957.117270
1597142501.661210
2485529440.583861
4757217427.540474
4089826373.691323
3305069126.020769
1805228528.779684
5689626040.565922
1666802614.855401
644674480.852823
1866208027.018234
2551957014.962520
5464808247.297769
1286998455.675562
6586182610.819746
6253763720.417379
3213121288.641341
3619847042.427670
4211182880.732391
2933053477.791612
1736882526.015035
1173631712.653404
3428898757.303153
4461368689.738005
3763706471.559680
2288293203.628003
2315998224.654533
2799783686.504177
2089885210.676161
3717512716.780789
3004015325.797890
1110426267.876844
3318784315.173563
2824278086.989807
3998281439.089138
5161200903.815236
1913116345.453603
3827096171.647454
2334270069.181768
2569114587.250439
2863295812.920763
4239347708.109636
4279771610.297512
1777911296.706701
1154122303.612296
5659433879.389794
3960309824.065419
1407035747.606088
2096899941.367692
2021990967.383692
4673894374.067782
4553026672.890189
1192676377.438858
5293399337.710883
3718759877.676457
5422640801.616853
2196631361.083429
2493476616.261665
3391004006.020963
1020073838.380628
2053434355.673427
3136916886.918856
3835641174.208478
3334729252.872800
3090899637.370821
1519657087.878676
2414728009.216564
4716145798.301757
1496267818.412948
3653929657.553389
3139203157.656359
1026850774.568305
3741871101.011900
2766037210.396535
4186874879.001977
4162478741.435873
5038117207.865627
857958460.066908
3075250776.593537
3861783479.904862
3465985396.768726
1690401349.914412
3018300959.854349
2024621041.972522
729563388.750194
3651603037.626919
2848763132.655838
2675667747.369581
2178385975.958475
2251302013.353441
3284981590.053919
2303534692.692914
4078366154.402918
1572038601.818516
2268906644.080565
1860423461.508262
2379710089.590828
4038615446.992877
1736472858.807154
2931044250.856952
2453401824.977427
916016314.180143
2284745540.792426
2690451310.313691
2005077410.488056
5548117201.315602
2801612623.700329
928903175.621198
3353421764.950723
4542279998.691971
3315254572.873998
1946975568.355520
2346560899.331555
2967787660.275438
1128490901.153324
3560133078.140476
2728341665.184103
5041217602.348652
1621908157.862037
3048203711.627065
1469201198.114151
4289915222.006554
1751669296.623123
2197587575.714208
4757583272.761688
1645481326.658734
3264058815.970510
2436992128.652262
2565141397.321553
2168552734.373202
3361308094.286214
2619433609.621234
1472228161.011153
1797983666.423491
1730951472.835010
2243485099.797787
2026053098.001117
5909911994.914425
3483901667.244787
948797104.336010
3886104034.191937
4602174475.806250
1304348239.493859
2649919176.170458
2707518011.679116
2654215046.296937
1574973314.534153
2382497540.326942
4523114243.795119
1981484477.559614
4446830695.328874
836662883.111544
2872195021.705099
5237843738.947851
2129518311.219731
3421643500.281191
3431064887.010567
2766249347.783864
3523298659.924421
4100484416.113353
4490897143.934564
3509121314.060523
4419831049.044991
4660554291.021762
3882475297.223492
4738831969.055049
3769198544.811704
3249714983.693736
1327476041.845651
4975259355.659127
2466585451.522085
6058656864.812024
2875821082.293624
5345149107.450016
1941464851.309689
1235056714.415098
4890640718.219810
818812128.947444
1425272106.909688
3176016205.828803
2890372080.337650
3689925409.695735
1131509920.548990
3187282750.338976
2357938811.601024
2158806992.130411
2837315503.218868
3107759281.657818
3612687203.987947
2734930339.658363
4980540050.049611
