# vtk DataFile Version 2.0
patchtest_tri3_mix
ASCII
DATASET POLYDATA
POINTS 4257 float
0.000000 -6.000000 0.000000
48.000000 -6.000000 0.000000
48.000000 6.000000 0.000000
0.000000 6.000000 0.000000
0.375000 -6.000000 0.000000
0.750000 -6.000000 0.000000
1.125000 -6.000000 0.000000
1.500000 -6.000000 0.000000
1.875000 -6.000000 0.000000
2.250000 -6.000000 0.000000
2.625000 -6.000000 0.000000
3.000000 -6.000000 0.000000
3.375000 -6.000000 0.000000
3.750000 -6.000000 0.000000
4.125000 -6.000000 0.000000
4.500000 -6.000000 0.000000
4.875000 -6.000000 0.000000
5.250000 -6.000000 0.000000
5.625000 -6.000000 0.000000
6.000000 -6.000000 0.000000
6.375000 -6.000000 0.000000
6.750000 -6.000000 0.000000
7.125000 -6.000000 0.000000
7.500000 -6.000000 0.000000
7.875000 -6.000000 0.000000
8.250000 -6.000000 0.000000
8.625000 -6.000000 0.000000
9.000000 -6.000000 0.000000
9.375000 -6.000000 0.000000
9.750000 -6.000000 0.000000
10.125000 -6.000000 0.000000
10.500000 -6.000000 0.000000
10.875000 -6.000000 0.000000
11.250000 -6.000000 0.000000
11.625000 -6.000000 0.000000
12.000000 -6.000000 0.000000
12.375000 -6.000000 0.000000
12.750000 -6.000000 0.000000
13.125000 -6.000000 0.000000
13.500000 -6.000000 0.000000
13.875000 -6.000000 0.000000
14.250000 -6.000000 0.000000
14.625000 -6.000000 0.000000
15.000000 -6.000000 0.000000
15.375000 -6.000000 0.000000
15.750000 -6.000000 0.000000
16.125000 -6.000000 0.000000
16.500000 -6.000000 0.000000
16.875000 -6.000000 0.000000
17.250000 -6.000000 0.000000
17.625000 -6.000000 0.000000
18.000000 -6.000000 0.000000
18.375000 -6.000000 0.000000
18.750000 -6.000000 0.000000
19.125000 -6.000000 0.000000
19.500000 -6.000000 0.000000
19.875000 -6.000000 0.000000
20.250000 -6.000000 0.000000
20.625000 -6.000000 0.000000
21.000000 -6.000000 0.000000
21.375000 -6.000000 0.000000
21.750000 -6.000000 0.000000
22.125000 -6.000000 0.000000
22.500000 -6.000000 0.000000
22.875000 -6.000000 0.000000
23.250000 -6.000000 0.000000
23.625000 -6.000000 0.000000
24.000000 -6.000000 0.000000
24.375000 -6.000000 0.000000
24.750000 -6.000000 0.000000
25.125000 -6.000000 0.000000
25.500000 -6.000000 0.000000
25.875000 -6.000000 0.000000
26.250000 -6.000000 0.000000
26.625000 -6.000000 0.000000
27.000000 -6.000000 0.000000
27.375000 -6.000000 0.000000
27.750000 -6.000000 0.000000
28.125000 -6.000000 0.000000
28.500000 -6.000000 0.000000
28.875000 -6.000000 0.000000
29.250000 -6.000000 0.000000
29.625000 -6.000000 0.000000
30.000000 -6.000000 0.000000
30.375000 -6.000000 0.000000
30.750000 -6.000000 0.000000
31.125000 -6.000000 0.000000
31.500000 -6.000000 0.000000
31.875000 -6.000000 0.000000
32.250000 -6.000000 0.000000
32.625000 -6.000000 0.000000
33.000000 -6.000000 0.000000
33.375000 -6.000000 0.000000
33.750000 -6.000000 0.000000
34.125000 -6.000000 0.000000
34.500000 -6.000000 0.000000
34.875000 -6.000000 0.000000
35.250000 -6.000000 0.000000
35.625000 -6.000000 0.000000
36.000000 -6.000000 0.000000
36.375000 -6.000000 0.000000
36.750000 -6.000000 0.000000
37.125000 -6.000000 0.000000
37.500000 -6.000000 0.000000
37.875000 -6.000000 0.000000
38.250000 -6.000000 0.000000
38.625000 -6.000000 0.000000
39.000000 -6.000000 0.000000
39.375000 -6.000000 0.000000
39.750000 -6.000000 0.000000
40.125000 -6.000000 0.000000
40.500000 -6.000000 0.000000
40.875000 -6.000000 0.000000
41.250000 -6.000000 0.000000
41.625000 -6.000000 0.000000
42.000000 -6.000000 0.000000
42.375000 -6.000000 0.000000
42.750000 -6.000000 0.000000
43.125000 -6.000000 0.000000
43.500000 -6.000000 0.000000
43.875000 -6.000000 0.000000
44.250000 -6.000000 0.000000
44.625000 -6.000000 0.000000
45.000000 -6.000000 0.000000
45.375000 -6.000000 0.000000
45.750000 -6.000000 0.000000
46.125000 -6.000000 0.000000
46.500000 -6.000000 0.000000
46.875000 -6.000000 0.000000
47.250000 -6.000000 0.000000
47.625000 -6.000000 0.000000
48.000000 -5.625000 0.000000
48.000000 -5.250000 0.000000
48.000000 -4.875000 0.000000
48.000000 -4.500000 0.000000
48.000000 -4.125000 0.000000
48.000000 -3.750000 0.000000
48.000000 -3.375000 0.000000
48.000000 -3.000000 0.000000
48.000000 -2.625000 0.000000
48.000000 -2.250000 0.000000
48.000000 -1.875000 0.000000
48.000000 -1.500000 0.000000
48.000000 -1.125000 0.000000
48.000000 -0.750000 0.000000
48.000000 -0.375000 0.000000
48.000000 -0.000000 0.000000
48.000000 0.375000 0.000000
48.000000 0.750000 0.000000
48.000000 1.125000 0.000000
48.000000 1.500000 0.000000
48.000000 1.875000 0.000000
48.000000 2.250000 0.000000
48.000000 2.625000 0.000000
48.000000 3.000000 0.000000
48.000000 3.375000 0.000000
48.000000 3.750000 0.000000
48.000000 4.125000 0.000000
48.000000 4.500000 0.000000
48.000000 4.875000 0.000000
48.000000 5.250000 0.000000
48.000000 5.625000 0.000000
47.625000 6.000000 0.000000
47.250000 6.000000 0.000000
46.875000 6.000000 0.000000
46.500000 6.000000 0.000000
46.125000 6.000000 0.000000
45.750000 6.000000 0.000000
45.375000 6.000000 0.000000
45.000000 6.000000 0.000000
44.625000 6.000000 0.000000
44.250000 6.000000 0.000000
43.875000 6.000000 0.000000
43.500000 6.000000 0.000000
43.125000 6.000000 0.000000
42.750000 6.000000 0.000000
42.375000 6.000000 0.000000
42.000000 6.000000 0.000000
41.625000 6.000000 0.000000
41.250000 6.000000 0.000000
40.875000 6.000000 0.000000
40.500000 6.000000 0.000000
40.125000 6.000000 0.000000
39.750000 6.000000 0.000000
39.375000 6.000000 0.000000
39.000000 6.000000 0.000000
38.625000 6.000000 0.000000
38.250000 6.000000 0.000000
37.875000 6.000000 0.000000
37.500000 6.000000 0.000000
37.125000 6.000000 0.000000
36.750000 6.000000 0.000000
36.375000 6.000000 0.000000
36.000000 6.000000 0.000000
35.625000 6.000000 0.000000
35.250000 6.000000 0.000000
34.875000 6.000000 0.000000
34.500000 6.000000 0.000000
34.125000 6.000000 0.000000
33.750000 6.000000 0.000000
33.375000 6.000000 0.000000
33.000000 6.000000 0.000000
32.625000 6.000000 0.000000
32.250000 6.000000 0.000000
31.875000 6.000000 0.000000
31.500000 6.000000 0.000000
31.125000 6.000000 0.000000
30.750000 6.000000 0.000000
30.375000 6.000000 0.000000
30.000000 6.000000 0.000000
29.625000 6.000000 0.000000
29.250000 6.000000 0.000000
28.875000 6.000000 0.000000
28.500000 6.000000 0.000000
28.125000 6.000000 0.000000
27.750000 6.000000 0.000000
27.375000 6.000000 0.000000
27.000000 6.000000 0.000000
26.625000 6.000000 0.000000
26.250000 6.000000 0.000000
25.875000 6.000000 0.000000
25.500000 6.000000 0.000000
25.125000 6.000000 0.000000
24.750000 6.000000 0.000000
24.375000 6.000000 0.000000
24.000000 6.000000 0.000000
23.625000 6.000000 0.000000
23.250000 6.000000 0.000000
22.875000 6.000000 0.000000
22.500000 6.000000 0.000000
22.125000 6.000000 0.000000
21.750000 6.000000 0.000000
21.375000 6.000000 0.000000
21.000000 6.000000 0.000000
20.625000 6.000000 0.000000
20.250000 6.000000 0.000000
19.875000 6.000000 0.000000
19.500000 6.000000 0.000000
19.125000 6.000000 0.000000
18.750000 6.000000 0.000000
18.375000 6.000000 0.000000
18.000000 6.000000 0.000000
17.625000 6.000000 0.000000
17.250000 6.000000 0.000000
16.875000 6.000000 0.000000
16.500000 6.000000 0.000000
16.125000 6.000000 0.000000
15.750000 6.000000 0.000000
15.375000 6.000000 0.000000
15.000000 6.000000 0.000000
14.625000 6.000000 0.000000
14.250000 6.000000 0.000000
13.875000 6.000000 0.000000
13.500000 6.000000 0.000000
13.125000 6.000000 0.000000
12.750000 6.000000 0.000000
12.375000 6.000000 0.000000
12.000000 6.000000 0.000000
11.625000 6.000000 0.000000
11.250000 6.000000 0.000000
10.875000 6.000000 0.000000
10.500000 6.000000 0.000000
10.125000 6.000000 0.000000
9.750000 6.000000 0.000000
9.375000 6.000000 0.000000
9.000000 6.000000 0.000000
8.625000 6.000000 0.000000
8.250000 6.000000 0.000000
7.875000 6.000000 0.000000
7.500000 6.000000 0.000000
7.125000 6.000000 0.000000
6.750000 6.000000 0.000000
6.375000 6.000000 0.000000
6.000000 6.000000 0.000000
5.625000 6.000000 0.000000
5.250000 6.000000 0.000000
4.875000 6.000000 0.000000
4.500000 6.000000 0.000000
4.125000 6.000000 0.000000
3.750000 6.000000 0.000000
3.375000 6.000000 0.000000
3.000000 6.000000 0.000000
2.625000 6.000000 0.000000
2.250000 6.000000 0.000000
1.875000 6.000000 0.000000
1.500000 6.000000 0.000000
1.125000 6.000000 0.000000
0.750000 6.000000 0.000000
0.375000 6.000000 0.000000
0.000000 5.625000 0.000000
0.000000 5.250000 0.000000
0.000000 4.875000 0.000000
0.000000 4.500000 0.000000
0.000000 4.125000 0.000000
0.000000 3.750000 0.000000
0.000000 3.375000 0.000000
0.000000 3.000000 0.000000
0.000000 2.625000 0.000000
0.000000 2.250000 0.000000
0.000000 1.875000 0.000000
0.000000 1.500000 0.000000
0.000000 1.125000 0.000000
0.000000 0.750000 0.000000
0.000000 0.375000 0.000000
0.000000 0.000000 0.000000
0.000000 -0.375000 0.000000
0.000000 -0.750000 0.000000
0.000000 -1.125000 0.000000
0.000000 -1.500000 0.000000
0.000000 -1.875000 0.000000
0.000000 -2.250000 0.000000
0.000000 -2.625000 0.000000
0.000000 -3.000000 0.000000
0.000000 -3.375000 0.000000
0.000000 -3.750000 0.000000
0.000000 -4.125000 0.000000
0.000000 -4.500000 0.000000
0.000000 -4.875000 0.000000
0.000000 -5.250000 0.000000
0.000000 -5.625000 0.000000
29.727441 1.642510 0.000000
37.455400 1.165206 0.000000
20.487590 -1.088219 0.000000
4.728177 -3.148256 0.000000
18.589188 2.695131 0.000000
4.501551 0.598421 0.000000
29.202857 -5.657668 0.000000
28.347591 -4.425432 0.000000
1.471723 1.908020 0.000000
8.147572 -0.546783 0.000000
7.362356 0.259980 0.000000
11.225110 -3.122869 0.000000
17.956176 2.255142 0.000000
16.678973 0.617670 0.000000
8.455365 -3.878781 0.000000
32.756177 0.693249 0.000000
26.919257 0.802710 0.000000
18.556614 1.628445 0.000000
27.524344 -4.341442 0.000000
17.502264 -2.446401 0.000000
3.195744 -5.634331 0.000000
1.951724 -0.596210 0.000000
41.724681 0.903481 0.000000
19.087732 -3.157310 0.000000
15.426353 -4.322959 0.000000
8.057917 1.240359 0.000000
39.218669 -3.296071 0.000000
27.660242 5.296474 0.000000
41.954957 -5.634463 0.000000
37.398506 -4.275461 0.000000
21.194214 -0.814029 0.000000
[...]
POINT_DATA 4257
SCALARS P float 1
LOOKUP_TABLE default
1028.691805
0.674907
-4.812265
-983.528744
999.241449
1003.599754
991.284165
985.960824
979.224829
971.334522
962.591850
953.927249
945.062681
936.657845
928.678801
921.518603
914.600517
907.422628
899.390850
891.424303
883.664446
876.028886
867.485223
859.633885
852.628590
843.853968
835.172559
826.881952
819.822265
813.024833
809.687880
800.682957
793.012819
785.035389
776.390194
767.003340
758.478669
749.038890
740.924957
732.897740
725.050997
717.345163
709.463292
701.807829
693.654283
685.053516
676.464006
668.230903
660.031306
651.953535
644.033134
636.236419
628.351860
620.274733
612.279129
604.275789
596.036265
587.753277
579.770792
571.727032
563.294702
555.716134
549.079099
543.173306
535.978564
524.612352
516.885995
508.426934
500.386346
492.294031
483.784985
475.360746
467.951207
460.179625
452.548339
444.805962
436.962900
428.900972
422.438346
413.519375
404.089994
396.187580
388.478118
380.361321
371.971732
363.382817
355.258829
347.527549
339.637868
331.714114
323.743727
315.744053
307.756545
299.801112
291.943004
284.066985
276.072514
268.028874
260.002277
251.994469
243.974897
235.940243
227.945811
219.957202
211.950431
203.939443
195.995630
188.035180
180.057380
172.085291
164.135477
156.189605
148.236833
140.282292
132.284515
124.354382
116.235706
108.204091
100.227068
92.408045
84.543776
76.651065
68.718216
60.698054
52.521952
44.080042
36.849728
29.852465
20.858906
15.513417
4.804019
2.370851
2.213817
3.059027
1.847721
2.684734
2.087928
2.388373
1.878673
1.686252
1.483496
1.335483
1.070156
0.809582
0.535209
0.277755
0.023653
-0.220508
-0.445221
-0.708707
-0.981381
-1.264612
-2.056439
-1.395186
-2.294850
-2.108308
-2.976781
-2.714086
-3.336619
-2.524355
-4.381888
0.454449
-6.599289
-22.113273
-24.619816
-34.705549
-43.078682
-51.989222
-56.952475
-69.069222
-72.968168
-85.563674
-88.895804
-101.996395
-104.514014
-118.577858
-120.111976
-134.821471
-136.151174
-147.649059
-156.177336
-163.243614
-171.039896
-178.018103
-186.757902
-196.274300
-204.496213
-211.164409
-220.462592
-227.600858
-237.360254
-245.821770
-251.431048
-259.210321
-267.574400
-275.501635
-283.369140
-291.244476
-299.233290
-307.295515
-315.431784
-323.574801
-331.757321
-340.033450
-348.343756
-356.746529
-365.453662
-374.122934
-382.404382
-390.358714
-398.260445
-405.813890
-413.337434
-420.909201
-428.570051
-436.398488
-444.011792
-452.043388
-460.745846
-469.519503
-478.888948
-488.034348
-495.603591
-502.193275
-509.448335
-516.009718
-523.951885
-532.578871
-541.241469
-548.776165
-556.456578
-565.044809
-573.762943
-582.552897
-590.394861
-599.927989
-607.936991
-620.853655
-626.173691
-631.963045
-640.799357
-648.680923
-656.328608
-664.398327
-672.091794
-680.171324
-688.464752
-696.684536
-704.306699
-710.583460
-717.809914
-721.188812
-729.849081
-741.305583
-752.244399
-761.362729
-767.685557
-775.148639
-777.224923
-785.775215
-799.099262
-808.642090
-816.635878
-823.832199
-830.801689
-836.474357
-844.871944
-852.066075
-872.659074
-879.262569
-883.309725
-887.827117
-892.670259
-898.579424
-905.512800
-913.240851
-921.708384
-931.163405
-943.205437
-951.466066
-957.196773
-962.893179
-968.291916
-974.714499
-980.707841
-988.135748
-997.574771
-998.681745
-1058.910851
-888.311934
-833.566396
-785.565238
-718.885421
-661.876290
-594.879317
-538.575004
-474.610748
-405.159044
-348.519721
-285.409111
-219.636975
-157.374309
-99.330615
-36.859281
25.013145
89.352049
151.983206
215.010265
277.696105
339.921158
404.462898
462.557820
522.077361
584.437847
643.943503
708.661081
776.073633
831.058245
892.228930
932.830383
-104.129023
-42.515834
104.232446
472.068298
-274.160445
-90.049994
364.150434
301.648639
-307.097646
74.882992
-36.484245
398.245326
-235.842178
-66.889750
532.076988
-36.775528
-58.341459
-166.696384
307.960710
258.629567
862.501037
96.135958
-19.611766
316.553881
487.710424
-171.281665
100.479839
-380.878444
118.535737
157.300790
75.681015
-606.646544
28.249716
42.501201
305.686008
-438.211111
96.042835
10.982817
-364.526816
194.586946
-463.039770
-153.696282
-57.194891
41.673162
158.972336
-557.380631
-342.277653
451.333044
-189.025280
-524.670439
-398.421792
-92.980204
-124.482271
-55.841072
233.774383
-709.439426
434.843738
583.134180
91.906429
83.275380
-57.611840
274.571275
-226.976098
-72.586333
393.891164
-207.441871
354.232337
64.541909
400.784232
0.605728
-447.957394
805.526083
-1.583093
-502.395531
-82.395607
531.044989
-41.575721
586.497784
715.085777
-338.642304
67.092366
-97.190326
80.266282
-120.412449
138.308539
-33.880426
642.082900
-26.407234
-114.026912
-443.190485
263.135906
-508.076744
28.442350
-16.687751
-195.967033
-454.143768
-103.268441
296.328859
-103.728290
141.516429
-228.872206
-381.545982
-304.146734
148.048956
35.007618
-737.149872
-275.607207
686.277501
-589.388381
-474.533280
-12.912237
-322.750818
-260.950954
341.741653
-62.562719
-483.519525
-16.003574
-231.859490
67.694033
187.450632
168.646875
-290.712306
-240.578576
551.700197
-201.578086
206.457766
-471.617627
262.059430
-22.214188
6.835986
473.826067
-486.326917
174.406766
105.161329
221.880659
-115.042323
149.395538
66.082894
475.826431
-654.275724
0.275501
-25.248953
-41.173650
352.190865
-16.756098
321.400295
-424.982088
-226.740104
56.694406
-349.704970
-81.988263
105.403168
186.757423
571.418339
-18.475000
-188.941142
-280.167955
-643.499068
-426.155533
-7.550322
10.961326
204.777649
138.633663
12.848800
-314.424648
-100.087405
-113.029147
249.137681
-526.410638
-67.380034
25.523491
-558.554188
-300.440382
-347.042228
125.814279
-129.672919
-164.532095
-106.821936
-116.693114
57.651722
103.050154
-151.347729
-676.308637
413.289684
162.589326
30.224160
378.929710
86.334234
322.266037
643.497236
-13.464553
576.914850
776.647557
788.238750
290.150399
19.715782
0.577721
-431.638108
379.477088
166.683895
292.032566
338.324381
11.963221
-87.858730
384.744014
-160.326706
34.428732
35.395087
200.871242
-16.481465
237.687041
337.490757
-123.494948
736.825826
-554.922047
257.688229
-350.055720
-191.895793
511.433380
29.329551
-562.952765
176.520777
448.139368
159.771721
260.497108
-45.473369
-114.660567
-198.502061
28.778916
355.827026
254.313598
-13.901023
742.136320
672.118397
84.966471
-194.947080
775.462619
246.795356
-195.024928
-118.645522
-433.737648
-326.790340
-82.577428
22.986363
-46.718929
-543.496107
-525.224528
-104.200128
-413.789012
130.208160
-72.790855
-176.577310
576.863110
-117.759500
-37.856798
161.638180
387.106363
-179.384029
-186.744735
531.564373
-373.789419
-305.505857
-341.192292
-136.393794
307.037723
359.179010
230.822677
-79.749384
368.315466
-168.266480
-151.546643
97.007218
-719.734878
-131.741634
25.453520
-7.215681
719.920945
590.455102
-818.349748
-716.052730
525.716077
-660.229703
-98.362215
212.725298
-127.482865
-289.717134
-43.699699
-483.887574
-270.782129
-366.899046
-481.420894
8.206725
-197.674995
377.190282
232.179880
-325.879552
221.312472
-596.287706
37.784963
437.935920
-399.722612
49.837231
24.177789
131.867587
3.381784
260.586334
-36.518171
-239.225219
11.076428
183.602338
271.434922
-181.949600
140.062099
35.172480
321.742807
144.059561
613.068391
65.867701
176.047825
60.444172
840.051111
130.247239
-18.189946
339.980110
-4.254434
423.227360
9.006865
55.933638
-506.191476
-40.828723
625.252208
-51.196832
-485.870791
123.122642
24.747103
39.938307
-5.417531
-109.305260
220.888711
-271.926820
519.024897
247.326169
-771.065069
-7.407822
-540.931724
528.335839
20.982421
-49.038768
-309.728521
-92.918103
-7.069131
135.057139
274.945744
249.484922
-14.596801
-603.428534
417.866445
74.151474
-156.700339
-487.781011
-104.696303
266.436913
-421.657814
90.325603
-71.771805
279.834866
-259.657596
-608.309041
-129.776875
-78.151890
158.454491
-219.343335
-144.813051
-79.857979
-165.985620
-224.882191
28.832030
435.736293
57.949002
-574.621471
251.070350
481.118745
67.970679
50.275865
-74.642374
-102.613119
-6.411935
-21.322688
-82.363165
413.250567
-25.294031
63.786796
362.430810
486.518275
-42.530266
-336.832942
-70.423032
-31.023296
-418.792507
-805.526930
178.599128
446.423596
-222.210111
-377.041712
17.112901
357.241652
209.666976
28.865945
52.232802
382.017165
-67.029035
494.850752
-352.988695
-247.587936
103.994612
76.141047
-168.607369
-484.202992
-28.073333
53.274525
134.579162
5.076236
311.869800
455.292766
223.366309
-117.128819
99.986447
-380.651675
-107.063228
-196.323374
-483.402973
-251.371027
-5.250132
853.550209
-1.237643
-204.286950
158.722442
-66.656328
199.985675
-725.339037
134.454874
-450.734436
96.994567
165.149421
-515.583789
732.055182
-529.601305
-224.519509
23.005279
-68.443825
-41.774882
-354.381207
146.153692
98.255812
-209.470659
391.014989
597.476697
-582.322370
-135.382463
-649.761494
-60.966894
-30.950901
137.929549
-144.251508
-5.300433
-701.997264
-492.641611
-564.555441
-83.730909
65.438502
342.932954
-221.135194
-353.388453
-408.092243
-608.414907
-432.229075
-206.880596
383.730842
5.622979
263.150306
167.938463
85.450478
-231.098956
-559.932247
338.014241
-434.601970
395.983657
32.341729
-275.595498
-367.857838
-93.362827
-291.399029
276.972534
-16.135594
-787.959400
-27.900398
388.610631
52.062355
583.729639
29.629933
-44.234806
-163.382674
-40.669444
28.298147
57.758837
56.981114
-69.447332
-100.956261
102.307325
-16.469023
175.354882
218.618194
43.025081
131.729883
-105.301863
146.811134
-83.212810
-363.431310
-215.060049
-57.762359
600.098966
-25.910466
309.546598
-574.568478
93.786092
580.836560
38.196330
333.255324
-445.467972
14.453974
-245.207327
317.282714
-344.977191
59.863851
-27.283862
46.638267
388.820072
330.795982
121.176709
601.092951
-312.293343
-19.633698
-673.667386
-457.112983
-101.050639
-545.177838
-44.594834
153.165139
314.568644
433.778478
-178.564641
-52.160651
59.473492
-15.259163
513.014668
532.933347
13.068708
-198.797228
-42.232006
323.947445
-280.164977
-604.333405
-39.101514
31.421566
66.294406
-210.293681
586.597738
-831.969848
458.755764
-458.656804
-125.836446
-92.964158
564.763688
-32.058101
-44.669916
-105.043034
-195.124696
-535.660054
-143.529445
43.285371
355.554248
315.188688
-544.149529
33.410010
-194.666798
-571.249378
4.350866
479.187366
-298.392404
-492.917108
529.369717
236.102979
19.273609
24.269428
-124.004960
224.151271
-19.916833
-2.322105
-2.645310
-7.770478
427.195883
-129.555606
533.389778
-642.954509
-204.367516
578.959215
-243.272965
-150.901709
-224.306644
-56.780934
140.528854
318.218936
306.133480
141.123749
-210.310638
445.071288
-170.940884
-170.009462
339.676010
95.330282
-794.565223
-561.962441
237.848163
7.953256
88.063778
188.624309
-444.419306
-133.549602
433.275271
675.258654
-570.185970
-69.799878
-120.801840
35.082264
-193.572456
-890.837083
86.431351
-182.730427
530.001060
-510.945472
-154.156325
629.425289
709.822656
167.436943
-111.991427
122.087067
17.889805
-118.040719
-313.707191
-657.954629
202.364025
-302.812574
-244.793863
136.369727
161.685811
187.716351
299.201151
87.359603
-249.257829
-287.033285
-741.560251
910.004813
-307.400976
-31.041440
-254.479967
85.898210
499.124687
26.745902
194.288693
619.778654
-222.729515
-251.521034
-10.004818
180.492170
-319.550156
897.512733
2.415580
-93.543863
-764.317742
714.070558
-76.502149
-376.744338
-104.154795
123.906839
11.390201
30.618772
-16.401403
221.724626
-317.762296
-34.199340
65.350823
17.291823
92.926276
229.675968
-134.582192
-358.013856
-23.680636
504.900409
319.208941
-283.076385
19.723663
30.195065
-722.278179
-83.441349
-412.102124
122.433066
-520.046596
-219.498788
-56.715090
514.511483
-330.067581
-35.433028
99.213960
-382.977439
-126.312362
-186.681455
-50.645667
-52.152149
242.327780
-177.975200
141.356695
78.126141
134.555434
-47.333418
42.298432
172.399855
366.451101
61.801350
663.823123
179.614381
419.225010
329.253102
90.968644
-89.849626
226.624619
1.782331
428.934803
471.245902
687.008381
68.329283
-865.648010
25.401610
-138.060367
-42.736129
77.216103
142.233088
-11.629282
-210.824274
25.451726
164.333474
-427.949693
-34.550145
109.606220
161.967226
258.918608
12.736522
-345.497109
782.153103
-562.145111
253.691326
-0.981731
-68.132535
-240.166586
-732.031984
698.076969
-2.477546
414.679587
-135.628666
-244.114289
298.309553
-388.611385
768.529968
-286.231704
-412.213147
-665.871116
-275.703046
419.379389
-274.354060
277.823918
-58.871716
93.888919
-162.844979
204.070068
28.449569
-40.442768
526.694833
-60.292030
13.679580
87.435679
-83.613837
-471.394315
51.920740
-218.543929
-118.266880
531.529572
102.326252
510.181258
-829.936138
-246.996225
-196.182060
-64.485735
176.058030
426.505302
-255.669812
-20.162874
-611.414840
20.376934
117.582744
525.117685
-29.910090
-522.674911
556.950922
316.140383
-63.770156
-334.268430
-84.380617
-19.547068
-267.777193
6.126445
-417.880392
352.127396
-444.600003
762.784747
44.074997
105.451999
-654.284020
-144.477253
3.989847
-177.065346
346.498540
61.278477
229.636265
-279.905259
-193.425145
-334.261779
171.593853
19.682513
-93.915684
331.557819
-238.400766
144.351722
-104.202945
135.293753
301.906101
66.985469
395.763941
288.197755
256.592801
8.687798
-235.706043
191.233914
213.016503
-117.857205
-200.552037
547.042833
-76.775716
263.730990
-428.115499
255.667327
-28.033934
307.054545
-760.105650
-401.193292
-15.638648
33.555140
-130.847546
-361.769416
62.695795
43.595320
634.948866
50.831204
101.691274
-15.237353
38.974667
-445.912002
-617.142863
-202.051140
-212.059254
-65.577848
126.734879
-195.341836
-273.551974
448.853607
55.905025
682.300552
132.612423
-261.848140
345.459133
17.955933
-268.570528
-87.418540
-229.799979
240.077848
-282.327849
-272.220870
261.352264
-438.746797
-88.364821
-124.217926
412.995979
-5.073351
7.204634
78.546690
69.286944
133.720001
633.278940
-367.199380
230.369814
-177.822480
-17.252492
-11.725876
439.274947
9.998453
-472.965370
-10.543943
-240.081317
-21.725112
-268.216927
-131.708622
208.668264
322.647605
-59.589470
512.488084
2.243307
-84.162798
49.440036
-387.692257
-35.252111
190.552310
24.203129
-178.181407
404.902446
-55.873345
-239.321353
-183.351393
-541.405527
274.300282
123.563828
277.362018
569.929750
397.871284
16.795747
414.706368
-83.429228
722.423422
-58.532645
137.023156
-604.911491
-167.202347
237.552954
-62.607706
358.592424
-334.562150
-44.044225
470.410853
796.495268
454.390827
612.588694
-559.232322
-150.960807
637.003295
436.873076
-669.317950
300.635541
282.398218
-243.427436
-64.691002
26.236068
-72.823309
-375.601711
-174.035329
-81.855358
278.202238
-207.102672
81.552720
-354.065777
80.383562
-597.281856
17.713632
779.820391
495.032838
158.299816
314.088714
9.833982
-37.454248
312.551684
71.670569
29.347264
666.903909
-37.108502
-289.668215
12.860930
-222.334647
-33.915277
-94.989858
213.156306
2.758243
-297.372111
487.107966
-568.255409
-8.084417
-30.443572
226.009564
-771.931110
73.519681
-82.575053
-427.501503
-545.813276
523.108644
620.166233
486.471297
67.045369
358.263002
459.103730
-368.778626
-235.261029
88.783257
-76.498303
168.339313
-101.458463
-6.382256
-405.494322
-2.813500
-312.341730
133.594736
-176.453662
-769.906691
11.891781
88.617931
113.862481
479.170247
-201.644703
771.448596
144.381981
-14.067844
-259.320409
265.708417
101.868903
-300.070574
-62.149387
61.441416
322.224935
565.497068
47.042553
-153.483994
-85.042373
121.851520
-242.291032
-255.039341
-176.972805
-174.841502
746.426145
317.624972
-536.666357
-359.142975
-100.611985
178.543085
52.925093
36.845710
-271.087190
-145.799963
-526.788210
-356.527387
-250.753104
-477.914270
-211.191134
211.567987
621.693391
-62.571749
-15.248145
83.402210
172.936701
139.810850
371.392706
38.161393
809.729208
-135.197326
-303.892186
702.587773
-340.047917
-256.414450
-37.297050
-36.401682
65.767256
-10.952114
-182.630838
-92.895613
-74.745558
-176.944222
-30.132349
-488.670412
161.756179
-235.138505
384.867757
22.851315
-328.119986
135.874268
166.937192
151.271644
-423.452841
77.250374
-95.985188
7.679795
6.297449
-67.649947
798.683051
-281.058568
-486.036638
-39.751676
52.165872
-795.544021
366.416199
-18.938040
42.975815
-160.078618
87.015050
25.819227
23.526682
-27.914136
18.792967
0.319104
-510.224020
281.474682
-617.473542
28.736329
152.602694
-142.580321
53.256199
-106.767723
331.787916
-323.224036
-21.835461
-158.305161
-66.969008
416.840347
449.356701
661.544460
-844.241261
139.432645
345.881077
-693.591543
38.878618
-235.858803
164.686434
137.497951
-656.478964
-518.119653
-24.343346
170.371906
-72.976656
-33.351311
216.722865
47.559135
-198.165620
-384.284701
1.621473
-71.277164
66.997924
-202.428973
14.397265
33.972102
385.776541
-87.373828
-75.022684
244.696215
45.004325
-161.553674
-535.226012
193.500314
-168.171710
76.527574
40.224159
89.220518
251.903617
-267.043818
116.175307
-137.372537
110.782529
-495.793581
145.926273
117.023885
-28.484318
-149.371298
-187.415126
467.733419
420.678892
173.044991
150.893829
317.261725
-634.810840
-141.473414
-119.790572
4.209685
-263.983243
-303.628288
329.380618
741.407193
-428.155223
553.361245
-172.832164
-729.537661
-595.909822
-37.386119
-51.314446
36.460891
76.765742
627.671949
-327.955898
-360.095978
145.568115
2.715266
699.821089
-479.482495
69.148829
117.230107
-302.745488
225.834814
-604.373918
118.144095
18.250755
-162.812891
-85.271604
15.113164
159.937051
11.914854
52.703923
20.265844
188.695352
-637.858973
-23.655985
-270.984263
-294.559379
119.144425
-272.042509
-30.532908
64.892806
48.209298
-529.897450
163.800963
-144.416980
-2.477284
-0.121882
-856.098415
20.317880
-162.941946
-76.275324
-49.202620
-29.189574
11.943875
-28.756082
353.253466
-62.670056
-399.483611
-22.741036
350.018808
-458.944697
231.601391
21.858965
24.984022
-363.012646
33.337344
-409.765286
-201.659584
-132.439574
-59.057563
175.527849
97.196156
13.402488
-196.257240
414.367658
397.562663
-229.598603
140.479274
-17.770352
-61.803370
-289.199760
-57.951053
651.112966
-429.417912
-53.801445
-345.640775
370.967092
-78.806886
-172.889634
-396.162935
99.244973
-59.668824
-101.389725
135.047912
212.806212
49.589423
-191.473293
-322.161212
575.125183
485.641832
-133.337865
307.975699
-207.876050
-369.966550
-61.079180
-482.048196
38.218918
-548.168934
-328.689611
-239.130967
110.434135
-224.869546
480.545876
-270.342045
-161.414394
24.056833
-44.842401
209.388820
198.590413
-427.569158
31.261482
-533.025190
0.578330
-81.020949
129.147859
-230.462842
159.026827
-593.452390
132.743537
-134.705297
140.612365
-34.513018
-198.136457
213.840517
-72.269493
50.744424
-489.286120
-182.847067
-313.057222
-150.508049
34.978187
673.971037
-106.576308
-826.966033
-15.353975
-31.090606
182.594318
-72.127032
-76.933750
-123.538092
-190.413233
249.414665
481.155066
724.141459
27.741697
83.884445
-74.682194
-273.782027
-143.764883
198.714691
-229.223176
-260.161223
88.653502
102.015770
-80.722182
-280.729858
357.099058
-85.658144
-558.717810
-3.250399
-133.161494
-122.945333
231.431278
-482.386508
-6.227737
-491.557020
165.033233
-95.629508
-481.683565
-99.214353
-313.929177
391.511466
-121.270670
363.860260
-432.141940
54.507355
39.259107
-36.895314
-3.699615
13.546734
-88.873782
-267.907229
-0.998151
-298.289698
51.224978
15.693553
123.827683
-156.121607
-10.203620
730.811535
-223.940190
-342.051138
-406.881055
18.316313
258.874667
-146.976702
171.845790
174.364076
178.200488
106.997838
102.531683
269.729254
9.252731
-346.572102
84.988133
249.224217
614.458423
325.675397
-59.068056
-27.397389
98.554737
373.523284
-49.323671
6.556025
33.355613
253.049851
704.529079
-30.294397
-3.688740
341.890496
302.363158
118.901399
133.202124
231.731808
44.698405
-311.529350
377.896020
-42.568290
62.162614
177.809019
-81.492222
-0.954739
-39.177697
-343.048610
84.969131
93.822910
86.465890
237.491935
199.719815
252.585466
77.988882
-98.190937
-252.846708
-101.888273
549.408475
-151.728885
302.097694
216.785225
-41.019900
395.882541
23.151220
366.670800
256.515882
-290.722943
-664.125448
136.654167
-200.645417
23.014046
-223.987172
276.276005
-93.158250
-298.119240
685.012338