# vtk DataFile Version 2.0
cantilever_tri3_mix
ASCII
DATASET POLYDATA
POINTS 85 float
0.000000 -6.000000 0.000000
48.000000 -6.000000 0.000000
48.000000 6.000000 0.000000
0.000000 6.000000 0.000000
3.000000 -6.000000 0.000000
6.000000 -6.000000 0.000000
9.000000 -6.000000 0.000000
12.000000 -6.000000 0.000000
15.000000 -6.000000 0.000000
18.000000 -6.000000 0.000000
21.000000 -6.000000 0.000000
24.000000 -6.000000 0.000000
27.000000 -6.000000 0.000000
30.000000 -6.000000 0.000000
33.000000 -6.000000 0.000000
36.000000 -6.000000 0.000000
39.000000 -6.000000 0.000000
42.000000 -6.000000 0.000000
45.000000 -6.000000 0.000000
48.000000 -3.000000 0.000000
48.000000 -0.000000 0.000000
48.000000 3.000000 0.000000
45.000000 6.000000 0.000000
42.000000 6.000000 0.000000
39.000000 6.000000 0.000000
36.000000 6.000000 0.000000
33.000000 6.000000 0.000000
30.000000 6.000000 0.000000
27.000000 6.000000 0.000000
24.000000 6.000000 0.000000
21.000000 6.000000 0.000000
18.000000 6.000000 0.000000
15.000000 6.000000 0.000000
12.000000 6.000000 0.000000
9.000000 6.000000 0.000000
6.000000 6.000000 0.000000
3.000000 6.000000 0.000000
0.000000 3.000000 0.000000
0.000000 0.000000 0.000000
0.000000 -3.000000 0.000000
3.000000 -3.000000 0.000000
3.000000 0.000000 0.000000
3.000000 3.000000 0.000000
6.000000 -3.000000 0.000000
6.000000 0.000000 0.000000
6.000000 3.000000 0.000000
9.000000 -3.000000 0.000000
9.000000 0.000000 0.000000
9.000000 3.000000 0.000000
12.000000 -3.000000 0.000000
12.000000 0.000000 0.000000
12.000000 3.000000 0.000000
15.000000 -3.000000 0.000000
15.000000 0.000000 0.000000
15.000000 3.000000 0.000000
18.000000 -3.000000 0.000000
18.000000 0.000000 0.000000
18.000000 3.000000 0.000000
21.000000 -3.000000 0.000000
21.000000 0.000000 0.000000
21.000000 3.000000 0.000000
24.000000 -3.000000 0.000000
24.000000 -0.000000 0.000000
24.000000 3.000000 0.000000
27.000000 -3.000000 0.000000
27.000000 -0.000000 0.000000
27.000000 3.000000 0.000000
30.000000 -3.000000 0.000000
30.000000 -0.000000 0.000000
30.000000 3.000000 0.000000
33.000000 -3.000000 0.000000
33.000000 -0.000000 0.000000
33.000000 3.000000 0.000000
36.000000 -3.000000 0.000000
36.000000 -0.000000 0.000000
36.000000 3.000000 0.000000
39.000000 -3.000000 0.000000
39.000000 -0.000000 0.000000
39.000000 3.000000 0.000000
42.000000 -3.000000 0.000000
42.000000 -0.000000 0.000000
42.000000 3.000000 0.000000
45.000000 -3.000000 0.000000
45.000000 -0.000000 0.000000
45.000000 3.000000 0.000000
POLYGONS 128 512
3 0 4 39
3 39 4 40
3 39 40 38
3 38 40 41
3 38 41 37
3 37 41 42
3 37 42 3
3 3 42 36
3 4 5 40
3 40 5 43
3 40 43 41
3 41 43 44
3 41 44 42
3 42 44 45
3 42 45 36
3 36 45 35
3 5 6 43
3 43 6 46
3 43 46 44
3 44 46 47
3 44 47 45
3 45 47 48
3 45 48 35
3 35 48 34
3 6 7 46
3 46 7 49
3 46 49 47
3 47 49 50
3 47 50 48
3 48 50 51
3 48 51 34
3 34 51 33
3 7 8 49
3 49 8 52
3 49 52 50
3 50 52 53
3 50 53 51
3 51 53 54
3 51 54 33
3 33 54 32
3 8 9 52
3 52 9 55
3 52 55 53
3 53 55 56
3 53 56 54
3 54 56 57
3 54 57 32
3 32 57 31
3 9 10 55
3 55 10 58
3 55 58 56
3 56 58 59
3 56 59 57
3 57 59 60
3 57 60 31
3 31 60 30
3 10 11 58
3 58 11 61
3 58 61 59
3 59 61 62
3 59 62 60
3 60 62 63
3 60 63 30
3 30 63 29
3 11 12 61
3 61 12 64
3 61 64 62
3 62 64 65
3 62 65 63
3 63 65 66
3 63 66 29
3 29 66 28
3 12 13 64
3 64 13 67
3 64 67 65
3 65 67 68
3 65 68 66
3 66 68 69
3 66 69 28
3 28 69 27
3 13 14 67
3 67 14 70
3 67 70 68
3 68 70 71
3 68 71 69
3 69 71 72
3 69 72 27
3 27 72 26
3 14 15 70
3 70 15 73
3 70 73 71
3 71 73 74
3 71 74 72
3 72 74 75
3 72 75 26
3 26 75 25
3 15 16 73
3 73 16 76
3 73 76 74
3 74 76 77
3 74 77 75
3 75 77 78
3 75 78 25
3 25 78 24
3 16 17 76
3 76 17 79
3 76 79 77
3 77 79 80
3 77 80 78
3 78 80 81
3 78 81 24
3 24 81 23
3 17 18 79
3 79 18 82
3 79 82 80
3 80 82 83
3 80 83 81
3 81 83 84
3 81 84 23
3 23 84 22
3 18 1 82
3 82 1 19
3 82 19 83
3 83 19 20
3 83 20 84
3 84 20 21
3 84 21 22
3 22 21 2
CELL_DATA 128
SCALARS PRESSURE float 1
LOOKUP_TABLE default
62797703496.756218
-426266654904.508301
312650883096.010437
-367841398329.756409
307235806009.659668
-748538358131.890503
372192151340.162964
-333238248904.109741
342300906997.771851
-431590312457.859436
451996875229.656189
-195106328222.930847
234291384462.897919
-376612489264.086609
625445750167.926392
-264827649436.986938
181983977562.599274
-418290430882.994873
404994926825.655090
-172105955646.275330
299912910397.561951
-418507329129.319885
521205332959.669678
-283871479224.613953
154424063934.059448
-330114966983.455688
403729310542.526917
-283833594045.040405
163796755012.900055
-452699780344.823914
390061978672.488037
-209710914116.432129
189666505660.641937
-313042281913.459717
326609865377.224487
-229551997312.935059
232384060621.544128
-273089641443.364990
472485857408.612915
-238329907919.678467
150169271631.596313
-261650063413.484100
263288885295.761597
-240825285435.705566
274568226463.581848
-271165514393.062408
360896520838.845398
-283793135117.302124
173692392876.935120
-232253378132.771973
201825245756.521881
-265745374955.154694
222332817693.067810
-240871713756.234863
323301769377.272034
-175951537251.910828
151883260197.601379
-206018589297.698639
176695350856.066315
-201475425559.683441
234089824206.701111
-202151573781.224243
326692785164.668762
-203974394366.407898
105286392045.072357
-167233240756.941315
163195515855.234680
-180554087264.605408
214281512258.515015
-197184465626.011078
257991187028.223541
-190980817738.982300
105924929193.416946
-138729268604.965149
131723710896.665695
-170507095700.746857
171632017601.747223
-165081674636.476562
246689166374.062347
-134137481324.293915
84004596045.420090
-113245874651.455795
104464714896.690125
-135999573128.679428
149762400998.560211
-145282336956.941681
219558666813.363922
-141997852910.718384
61933734976.058037
-77763184503.529068
90172506998.541718
-105134390062.839828
130768174096.735062
-121479741850.395859
181070445123.900848
-119061245946.945786
40861477658.011887
-54210816475.475334
61423178220.604668
-85364024356.082214
98599866418.747589
-96700835034.949539
157024411010.900879
-88916734377.518173
22000103373.184799
-22445197568.137997
38424860258.851181
-56050043615.643387
72151945839.305359
-75960272506.071045
127957904596.918030
-78272503777.003571
9839854213.439075
6868616163.473786
22910568073.555408
-24795946924.405594
47107420053.771538
-56796017077.061958
91908920701.792923
-60891056328.189713
-25892187316.258530
23644661901.697815
-1424541719.026416
-3857702891.936611
15212931352.704817
-31797294759.818981
70778274422.452362
-13984808064.619455
