# vtk DataFile Version 2.0
patchtest_tri3_mix
ASCII
DATASET POLYDATA
POINTS 500 float
0.000000 -6.000000 0.000000
48.000000 -6.000000 0.000000
48.000000 6.000000 0.000000
0.000000 6.000000 0.000000
1.090909 -6.000000 0.000000
2.181818 -6.000000 0.000000
3.272727 -6.000000 0.000000
4.363636 -6.000000 0.000000
5.454545 -6.000000 0.000000
6.545455 -6.000000 0.000000
7.636364 -6.000000 0.000000
8.727273 -6.000000 0.000000
9.818182 -6.000000 0.000000
10.909091 -6.000000 0.000000
12.000000 -6.000000 0.000000
13.090909 -6.000000 0.000000
14.181818 -6.000000 0.000000
15.272727 -6.000000 0.000000
16.363636 -6.000000 0.000000
17.454545 -6.000000 0.000000
18.545455 -6.000000 0.000000
19.636364 -6.000000 0.000000
20.727273 -6.000000 0.000000
21.818182 -6.000000 0.000000
22.909091 -6.000000 0.000000
24.000000 -6.000000 0.000000
25.090909 -6.000000 0.000000
26.181818 -6.000000 0.000000
27.272727 -6.000000 0.000000
28.363636 -6.000000 0.000000
29.454545 -6.000000 0.000000
30.545455 -6.000000 0.000000
31.636364 -6.000000 0.000000
32.727273 -6.000000 0.000000
33.818182 -6.000000 0.000000
34.909091 -6.000000 0.000000
36.000000 -6.000000 0.000000
37.090909 -6.000000 0.000000
38.181818 -6.000000 0.000000
39.272727 -6.000000 0.000000
40.363636 -6.000000 0.000000
41.454545 -6.000000 0.000000
42.545455 -6.000000 0.000000
43.636364 -6.000000 0.000000
44.727273 -6.000000 0.000000
45.818182 -6.000000 0.000000
46.909091 -6.000000 0.000000
48.000000 -4.909091 0.000000
48.000000 -3.818182 0.000000
48.000000 -2.727273 0.000000
48.000000 -1.636364 0.000000
48.000000 -0.545455 0.000000
48.000000 0.545455 0.000000
48.000000 1.636364 0.000000
48.000000 2.727273 0.000000
48.000000 3.818182 0.000000
48.000000 4.909091 0.000000
46.909091 6.000000 0.000000
45.818182 6.000000 0.000000
44.727273 6.000000 0.000000
43.636364 6.000000 0.000000
42.545455 6.000000 0.000000
41.454545 6.000000 0.000000
40.363636 6.000000 0.000000
39.272727 6.000000 0.000000
38.181818 6.000000 0.000000
37.090909 6.000000 0.000000
36.000000 6.000000 0.000000
34.909091 6.000000 0.000000
33.818182 6.000000 0.000000
32.727273 6.000000 0.000000
31.636364 6.000000 0.000000
30.545455 6.000000 0.000000
29.454545 6.000000 0.000000
28.363636 6.000000 0.000000
27.272727 6.000000 0.000000
26.181818 6.000000 0.000000
25.090909 6.000000 0.000000
24.000000 6.000000 0.000000
22.909091 6.000000 0.000000
21.818182 6.000000 0.000000
20.727273 6.000000 0.000000
19.636364 6.000000 0.000000
18.545455 6.000000 0.000000
17.454545 6.000000 0.000000
16.363636 6.000000 0.000000
15.272727 6.000000 0.000000
14.181818 6.000000 0.000000
13.090909 6.000000 0.000000
12.000000 6.000000 0.000000
10.909091 6.000000 0.000000
9.818182 6.000000 0.000000
8.727273 6.000000 0.000000
7.636364 6.000000 0.000000
6.545455 6.000000 0.000000
5.454545 6.000000 0.000000
4.363636 6.000000 0.000000
3.272727 6.000000 0.000000
2.181818 6.000000 0.000000
1.090909 6.000000 0.000000
0.000000 4.909091 0.000000
0.000000 3.818182 0.000000
0.000000 2.727273 0.000000
0.000000 1.636364 0.000000
0.000000 0.545455 0.000000
0.000000 -0.545455 0.000000
0.000000 -1.636364 0.000000
0.000000 -2.727273 0.000000
0.000000 -3.818182 0.000000
0.000000 -4.909091 0.000000
38.800328 -4.971223 0.000000
3.655374 -0.489930 0.000000
16.049487 -0.505334 0.000000
7.396481 -2.671342 0.000000
2.318356 -4.734508 0.000000
34.232031 -4.869978 0.000000
36.513468 3.909394 0.000000
23.841827 0.522475 0.000000
26.138062 2.765780 0.000000
2.780009 4.909693 0.000000
41.452316 1.741664 0.000000
16.593664 -1.614518 0.000000
46.116865 -3.994465 0.000000
3.118445 0.551996 0.000000
42.662436 1.700020 0.000000
22.037504 -2.778268 0.000000
38.685384 -2.174874 0.000000
12.458527 4.944097 0.000000
45.807254 4.877731 0.000000
15.937198 -2.681211 0.000000
3.640650 -4.909941 0.000000
7.308367 3.844876 0.000000
17.745127 -3.819274 0.000000
32.858854 1.660108 0.000000
29.879789 -1.609956 0.000000
15.315656 -3.754400 0.000000
18.964452 3.825685 0.000000
33.123921 -4.878712 0.000000
8.071442 -1.578687 0.000000
35.863291 0.758419 0.000000
12.925263 -1.442597 0.000000
27.424299 0.581164 0.000000
27.312983 4.918323 0.000000
7.428055 -0.497044 0.000000
23.226482 1.600349 0.000000
37.129925 2.876435 0.000000
26.222386 0.577350 0.000000
12.404307 -0.291052 0.000000
13.744504 1.763116 0.000000
17.677595 3.833524 0.000000
23.250800 -2.752470 0.000000
34.658848 2.800467 0.000000
11.188185 3.863685 0.000000
6.741498 -3.765927 0.000000
6.137107 -2.677213 0.000000
14.731887 -4.850941 0.000000
20.915565 1.511312 0.000000
19.325400 2.714516 0.000000
1.149249 -3.808573 0.000000
46.908932 0.076302 0.000000
29.798671 2.739937 0.000000
3.494684 -2.693709 0.000000
6.781190 0.585113 0.000000
35.908989 -3.766181 0.000000
22.645410 -3.838691 0.000000
45.962843 -0.559501 0.000000
11.853038 2.852345 0.000000
28.050265 -0.512044 0.000000
42.121067 4.908825 0.000000
15.149244 3.824991 0.000000
44.562320 2.750967 0.000000
33.416661 4.905110 0.000000
43.234588 0.593482 0.000000
1.101268 -2.582553 0.000000
23.510815 4.882276 0.000000
7.310687 -4.873574 0.000000
9.864807 -2.754342 0.000000
41.879166 -1.513464 0.000000
34.755559 -1.568295 0.000000
20.854959 -0.643161 0.000000
43.332913 2.766091 0.000000
36.495744 1.827643 0.000000
46.041843 1.732121 0.000000
27.998662 1.670593 0.000000
8.531734 -4.889408 0.000000
20.289353 0.445608 0.000000
15.696751 2.763070 0.000000
26.845813 -0.512256 0.000000
25.623686 -4.878595 0.000000
29.842658 0.569302 0.000000
30.494878 -2.702522 0.000000
41.177384 -2.560276 0.000000
17.424659 1.651516 0.000000
17.807841 -1.653051 0.000000
10.390330 -1.039165 0.000000
25.587659 1.667835 0.000000
40.872159 2.817531 0.000000
45.761553 2.814024 0.000000
8.643457 -2.675772 0.000000
23.855816 -1.657605 0.000000
3.636373 1.643073 0.000000
10.413371 -3.888634 0.000000
40.898483 4.909814 0.000000
6.129860 1.670329 0.000000
28.578547 2.752968 0.000000
31.643264 1.650755 0.000000
11.185280 1.825620 0.000000
45.248951 3.843579 0.000000
34.041313 3.846591 0.000000
2.327934 1.625584 0.000000
37.767784 3.913618 0.000000
9.235624 2.815330 0.000000
44.470694 -4.919988 0.000000
10.506066 0.804865 0.000000
29.280242 -2.697523 0.000000
29.798727 4.900035 0.000000
40.678717 -1.435969 0.000000
24.456794 -2.722481 0.000000
47.016638 -3.480204 0.000000
19.668752 4.886158 0.000000
39.979763 -4.990661 0.000000
36.478316 -4.890422 0.000000
6.049832 3.844364 0.000000
21.489261 2.601003 0.000000
14.104981 -3.725069 0.000000
35.886243 2.849942 0.000000
11.819560 0.803117 0.000000
3.518454 3.825884 0.000000
42.745113 3.841179 0.000000
43.343871 4.906912 0.000000
34.070825 1.684712 0.000000
43.088652 -1.575875 0.000000
1.063604 2.253306 0.000000
13.853038 3.847248 0.000000
1.365885 4.809534 0.000000
19.767574 1.569972 0.000000
46.868259 -2.292248 0.000000
20.436932 2.655151 0.000000
24.774664 4.903338 0.000000
28.631498 0.576335 0.000000
14.665256 4.893667 0.000000
4.920501 -0.517111 0.000000
2.206909 -3.255334 0.000000
9.141495 4.899921 0.000000
21.440071 -1.714864 0.000000
41.352692 -0.398677 0.000000
5.510544 -3.763975 0.000000
41.654327 -3.701447 0.000000
40.806985 0.705274 0.000000
6.174037 -0.510702 0.000000
40.269477 3.874736 0.000000
34.137388 -2.662328 0.000000
35.343438 -0.475898 0.000000
33.447953 2.752255 0.000000
17.927463 0.534291 0.000000
36.980885 -1.064721 0.000000
40.480401 -3.598424 0.000000
29.884496 -3.788380 0.000000
42.368356 -2.631960 0.000000
38.292738 -3.956354 0.000000
1.141010 -4.941777 0.000000
23.726417 2.733350 0.000000
27.904220 -4.880945 0.000000
4.323641 -1.610144 0.000000
38.236101 -1.168800 0.000000
4.877887 -4.864160 0.000000
35.266575 1.766426 0.000000
11.426310 4.920349 0.000000
12.985399 -3.937060 0.000000
18.607559 1.621313 0.000000
38.380821 2.873885 0.000000
18.380257 -2.754525 0.000000
1.076691 3.562893 0.000000
37.741346 1.847101 0.000000
8.574386 3.843704 0.000000
28.568185 4.910225 0.000000
13.154004 2.836461 0.000000
3.183661 -1.541701 0.000000
15.912720 -4.874138 0.000000
32.827220 3.819078 0.000000
18.329261 -4.910163 0.000000
4.890819 1.662762 0.000000
31.684997 -0.518407 0.000000
14.989212 1.710733 0.000000
39.980132 -2.458192 0.000000
22.074583 1.527651 0.000000
11.152813 -2.984715 0.000000
24.197619 3.829452 0.000000
16.731085 0.568766 0.000000
46.903859 -1.164022 0.000000
25.645645 -0.523917 0.000000
38.942902 -0.230774 0.000000
21.425283 -3.856480 0.000000
25.456556 3.844104 0.000000
30.024900 -4.883060 0.000000
19.017449 -1.688805 0.000000
15.520338 0.606203 0.000000
14.299907 0.658045 0.000000
10.735086 -1.991893 0.000000
12.330183 -4.947968 0.000000
9.813966 -0.205728 0.000000
17.160801 -2.719257 0.000000
2.282557 3.871003 0.000000
9.865532 3.847706 0.000000
5.479589 2.757590 0.000000
18.148771 2.744974 0.000000
1.088948 -0.164230 0.000000
30.427077 1.652398 0.000000
33.529313 -1.583828 0.000000
25.056481 -1.624744 0.000000
37.618406 -4.927482 0.000000
4.787023 3.839854 0.000000
28.989708 -4.881692 0.000000
45.631181 -1.709623 0.000000
24.923882 2.756543 0.000000
15.372109 -1.575440 0.000000
22.663290 0.466307 0.000000
43.303229 -4.891862 0.000000
30.470192 -0.520940 0.000000
32.215094 4.893784 0.000000
11.032528 -4.959420 0.000000
25.052428 -3.793670 0.000000
45.718291 0.580726 0.000000
40.150806 -0.321566 0.000000
17.093534 4.897853 0.000000
20.273144 3.786105 0.000000
26.043140 4.915890 0.000000
32.903088 -0.507629 0.000000
14.702374 -2.643173 0.000000
4.255983 2.744610 0.000000
43.563425 -2.685225 0.000000
42.019959 0.645813 0.000000
27.357732 2.763768 0.000000
27.944811 3.841817 0.000000
10.319941 4.901101 0.000000
5.551479 -1.601332 0.000000
16.413262 3.825063 0.000000
20.227618 -1.712799 0.000000
39.665783 4.926895 0.000000
37.397432 -1.978281 0.000000
43.743815 -0.517731 0.000000
31.107567 -3.795730 0.000000
21.595085 3.743330 0.000000
2.319551 -0.707050 0.000000
22.240685 4.857861 0.000000
46.945843 4.869135 0.000000
11.688670 -3.988665 0.000000
35.352299 -4.872770 0.000000
44.574604 4.909477 0.000000
3.140853 -3.859178 0.000000
[...]
POINT_DATA 500
SCALARS P float 1
LOOKUP_TABLE default
1006.902390
-2.030419
-3.901421
-966.162793
964.091639
962.117440
922.976366
910.971279
884.106830
862.080343
840.704726
815.533513
794.887110
770.250476
748.850852
724.056384
703.390006
680.663094
656.777791
635.887610
610.425242
590.023042
565.337929
544.295529
519.929752
498.604818
475.131588
452.701041
429.969757
406.911795
384.772812
361.136577
339.150167
316.019280
293.389822
270.582166
247.903513
224.813453
201.912485
178.168811
155.333526
135.090535
110.597373
88.718714
65.319713
41.696223
19.563886
2.733738
-1.588763
1.182048
-0.324940
0.248888
0.258543
-0.365745
0.785846
-0.984359
1.637045
-24.341244
-48.131869
-71.182133
-93.831323
-116.569604
-139.586917
-162.099324
-185.141751
-208.177920
-230.723986
-253.507541
-276.085419
-299.078962
-321.121248
-344.348259
-367.181848
-389.107862
-413.463877
-434.718382
-458.829130
-480.105133
-504.087989
-526.534589
-547.865491
-573.089448
-593.331471
-618.596571
-639.194536
-663.512745
-685.603885
-707.981333
-732.070160
-753.371201
-777.982033
-798.199858
-823.655280
-843.579169
-869.408461
-888.907484
-914.915284
-939.741346
-943.850174
-1006.700985
-819.028120
-592.064706
-437.567915
-245.036619
-70.118421
118.497697
289.594211
487.555820
652.636008
851.236329
161.724745
75.780105
56.337971
377.153900
757.151663
234.571222
-156.811220
-43.592169
-209.866999
-777.362633
-39.654720
176.444057
24.580938
-91.667316
-31.528399
251.403593
69.611331
-610.791503
-35.544623
299.428735
761.129852
-545.017470
401.403079
-87.377701
101.493147
425.966496
-386.455113
254.168753
219.208493
-31.704045
176.540818
-41.406608
-352.099499
70.246154
-138.028338
-108.135824
-43.485473
35.842242
-210.057276
-404.900841
237.374976
-129.370774
-495.851714
540.283315
390.857430
561.700504
-142.584118
-271.076541
611.521560
-0.440532
-173.012264
416.004295
-83.959905
157.912390
337.799257
4.037169
-357.659011
35.689985
-98.456422
-436.987126
-32.424397
-247.155100
-9.651379
405.861373
-413.550859
689.740148
365.328762
32.204814
72.329313
60.949319
-44.469892
-73.211295
-11.987953
-116.201354
673.709734
-42.805682
-310.205732
37.870290
381.403720
-35.748341
165.048627
61.088089
-175.691580
173.628708
135.196518
-130.027872
-69.346182
-21.231257
367.056583
139.234124
-251.317714
508.324850
-119.443728
-242.358521
-185.408026
-93.873442
-233.829387
-37.677652
-187.378229
-256.858703
-140.217599
-379.311531
61.705960
-104.929224
176.071086
-309.040178
36.756258
223.397044
12.804748
-479.958185
143.405248
197.510490
-560.296284
-240.353506
439.462167
-119.448643
-100.669697
-591.713754
-70.773080
-77.883307
-81.531288
26.977809
-381.327244
-457.716877
-776.158548
-153.926486
8.665201
-253.033093
-394.552792
-38.614080
-566.981442
77.102683
527.236872
-660.092506
158.436177
9.402503
554.293438
81.254158
-17.435898
74.911815
-104.766741
128.786760
21.148755
-138.919166
-55.691943
41.276941
94.539609
237.984081
52.100977
132.394318
797.227613
-230.692034
342.867121
246.766113
40.406692
729.037934
-78.273603
-622.474751
477.361809
-165.637823
-95.409171
284.337503
-607.883037
-66.030517
-527.801552
-329.644471
-343.078413
236.870072
546.382336
-201.880661
509.089958
-251.126609
29.580104
-196.323899
68.403885
-137.383527
382.380946
-317.553488
-61.638292
5.152493
40.954269
7.252549
355.821790
-301.972193
306.833292
170.226772
-68.314909
-76.961962
259.407848
616.529854
27.958318
292.003166
-610.533460
-510.421283
-407.571121
-284.331250
11.194665
-100.909936
79.741237
129.739341
179.715725
-579.932914
323.955516
14.056258
-220.646147
178.773963
-41.048123
81.387862
31.953426
-267.150475
639.439193
302.235836
-4.321774
8.866508
-525.207928
-365.844598
-373.624395
26.859802
306.687146
-414.087702
41.798120
-13.226739
-197.949478
-268.719079
-641.508129
235.488438
-421.131778
165.483015
-140.971279
72.699928
7.791544
222.572654
-344.262132
116.235434
-434.295525
-17.157828
502.566172
215.770012
-56.496226
595.048350
-331.775701
65.144007
116.281557
526.277183
172.741845
107.929067
-48.374217
655.950243
-39.476424
-122.571814
488.600923
-30.538439
-100.840392
198.420769
20.983191
107.975865
114.521833
-172.726143
212.720308
445.663724
-53.987355
212.237941
384.227186
-23.909274
-84.722365
-17.710155
-6.448825
51.482451
94.737350
-224.306995
-185.064496
-31.020360
-479.244722
-27.238099
-184.673455
5.618168
60.088685
312.938846
-585.829526
57.310714
-206.447235
-396.918256
403.267074
39.875953
-236.233698
269.235122
-742.522047
-704.486772
-428.057445
-29.320871
-57.562237
-226.711256
-238.652209
20.092563
524.976013
33.903737
-387.189572
-134.851062
414.309270
-3.883375
23.869929
264.174440
121.491621
-287.131034
19.619070
467.529853
-84.782180
-233.891811
319.999184
43.928489
591.817509
180.577761
-88.277299
-544.224710
-682.522080
290.901833
-239.375049
-149.432204
269.390179
100.945169
65.465797
-28.011225
402.084719
-160.966629
-369.530562
67.358822
-58.867638
-454.671095
188.687580
-251.136433
-49.323395
228.053697
-325.704878
39.085272
-123.445071
423.863129
8.092129
-22.271465
-44.598950
712.762956
31.198008
575.325546
-433.097063
-503.130095
-162.381671
-191.764118
-108.501066
387.495439
254.201580
53.320306
149.291238
513.531349
-87.677853
47.527619
285.513066
8.988837
117.114025
22.163360
-9.085464
-17.211082
361.452742
-82.366930
-296.760898
372.860718
141.021742
-240.272124
271.785321
148.260512
116.673946
186.896993
45.324688
275.134631
58.295907
87.421028
-56.606664
105.069204
-33.169547
53.548197
210.107908
205.604312
-727.678156
99.306332
6.387903
-85.053936
-217.963497
153.114737
61.421691
144.757927
331.348017
-285.510601
