# vtk DataFile Version 2.0
patchtest_tri3_mix
ASCII
DATASET POLYDATA
POINTS 330 float
0.000000 0.000000 0.000000
1.000000 0.000000 0.000000
1.000000 1.000000 0.000000
0.000000 1.000000 0.000000
0.058824 0.000000 0.000000
0.117647 0.000000 0.000000
0.176471 0.000000 0.000000
0.235294 0.000000 0.000000
0.294118 0.000000 0.000000
0.352941 0.000000 0.000000
0.411765 0.000000 0.000000
0.470588 0.000000 0.000000
0.529412 0.000000 0.000000
0.588235 0.000000 0.000000
0.647059 0.000000 0.000000
0.705882 0.000000 0.000000
0.764706 0.000000 0.000000
0.823529 0.000000 0.000000
0.882353 0.000000 0.000000
0.941176 0.000000 0.000000
1.000000 0.058824 0.000000
1.000000 0.117647 0.000000
1.000000 0.176471 0.000000
1.000000 0.235294 0.000000
1.000000 0.294118 0.000000
1.000000 0.352941 0.000000
1.000000 0.411765 0.000000
1.000000 0.470588 0.000000
1.000000 0.529412 0.000000
1.000000 0.588235 0.000000
1.000000 0.647059 0.000000
1.000000 0.705882 0.000000
1.000000 0.764706 0.000000
1.000000 0.823529 0.000000
1.000000 0.882353 0.000000
1.000000 0.941176 0.000000
0.941176 1.000000 0.000000
0.882353 1.000000 0.000000
0.823529 1.000000 0.000000
0.764706 1.000000 0.000000
0.705882 1.000000 0.000000
0.647059 1.000000 0.000000
0.588235 1.000000 0.000000
0.529412 1.000000 0.000000
0.470588 1.000000 0.000000
0.411765 1.000000 0.000000
0.352941 1.000000 0.000000
0.294118 1.000000 0.000000
0.235294 1.000000 0.000000
0.176471 1.000000 0.000000
0.117647 1.000000 0.000000
0.058824 1.000000 0.000000
0.000000 0.941176 0.000000
0.000000 0.882353 0.000000
0.000000 0.823529 0.000000
0.000000 0.764706 0.000000
0.000000 0.705882 0.000000
0.000000 0.647059 0.000000
0.000000 0.588235 0.000000
0.000000 0.529412 0.000000
0.000000 0.470588 0.000000
0.000000 0.411765 0.000000
0.000000 0.352941 0.000000
0.000000 0.294118 0.000000
0.000000 0.235294 0.000000
0.000000 0.176471 0.000000
0.000000 0.117647 0.000000
0.000000 0.058824 0.000000
0.168716 0.099042 0.000000
0.744879 0.460838 0.000000
0.165825 0.501204 0.000000
0.853906 0.057059 0.000000
0.705248 0.109624 0.000000
0.362284 0.155174 0.000000
0.943063 0.262873 0.000000
0.493724 0.726404 0.000000
0.223955 0.186943 0.000000
0.767518 0.107784 0.000000
0.160465 0.629579 0.000000
0.325443 0.198452 0.000000
0.321128 0.944264 0.000000
0.199995 0.312944 0.000000
0.893636 0.105837 0.000000
0.230183 0.411144 0.000000
0.442858 0.618196 0.000000
0.460291 0.498952 0.000000
0.369434 0.054513 0.000000
0.736891 0.828702 0.000000
0.600542 0.542560 0.000000
0.110272 0.533183 0.000000
0.834061 0.117960 0.000000
0.216231 0.535760 0.000000
0.063367 0.832544 0.000000
0.494013 0.832145 0.000000
0.704292 0.885581 0.000000
0.164087 0.269538 0.000000
0.671989 0.609881 0.000000
0.112806 0.362459 0.000000
0.314825 0.542844 0.000000
0.162296 0.565308 0.000000
0.943240 0.202391 0.000000
0.282826 0.157644 0.000000
0.887960 0.228783 0.000000
0.525986 0.887130 0.000000
0.582603 0.112092 0.000000
0.643715 0.111550 0.000000
0.636414 0.492705 0.000000
0.497861 0.943310 0.000000
0.616438 0.943010 0.000000
0.510138 0.458979 0.000000
0.056663 0.098407 0.000000
0.431128 0.831717 0.000000
0.108817 0.595267 0.000000
0.940840 0.675474 0.000000
0.114304 0.415387 0.000000
0.557279 0.943231 0.000000
0.170336 0.436805 0.000000
0.611352 0.056345 0.000000
0.678348 0.827991 0.000000
0.112514 0.472854 0.000000
0.824867 0.734566 0.000000
0.645831 0.885767 0.000000
0.822625 0.673267 0.000000
0.111589 0.061692 0.000000
0.175343 0.371869 0.000000
0.273710 0.224683 0.000000
0.167331 0.156740 0.000000
0.283883 0.890760 0.000000
0.559158 0.431668 0.000000
0.715904 0.769269 0.000000
0.272659 0.099024 0.000000
0.910860 0.950641 0.000000
0.894956 0.824263 0.000000
0.753497 0.399914 0.000000
0.736865 0.162968 0.000000
0.331624 0.108030 0.000000
0.667989 0.549301 0.000000
0.359863 0.719912 0.000000
0.350190 0.656338 0.000000
0.941834 0.616784 0.000000
0.911979 0.048661 0.000000
0.384707 0.609542 0.000000
0.056080 0.892812 0.000000
0.403913 0.263937 0.000000
0.762191 0.888711 0.000000
0.714462 0.657257 0.000000
0.333104 0.780130 0.000000
0.944827 0.143222 0.000000
0.153123 0.759958 0.000000
0.213067 0.742126 0.000000
0.054639 0.682540 0.000000
0.876683 0.415452 0.000000
0.688352 0.714916 0.000000
0.213170 0.599383 0.000000
0.586357 0.886616 0.000000
0.512301 0.393337 0.000000
0.263263 0.946543 0.000000
0.265618 0.572566 0.000000
0.725911 0.590325 0.000000
0.887456 0.164940 0.000000
0.881994 0.703825 0.000000
0.402153 0.402795 0.000000
0.379514 0.943510 0.000000
0.649982 0.663921 0.000000
0.344047 0.887700 0.000000
0.109764 0.658415 0.000000
0.157820 0.925930 0.000000
0.465997 0.673005 0.000000
0.055675 0.383849 0.000000
0.465206 0.887146 0.000000
0.055884 0.501518 0.000000
0.227846 0.059393 0.000000
0.792927 0.500525 0.000000
0.556523 0.831549 0.000000
0.722941 0.318180 0.000000
0.305209 0.051826 0.000000
0.557845 0.621780 0.000000
0.675109 0.942856 0.000000
0.939820 0.384272 0.000000
0.837500 0.193330 0.000000
0.551406 0.167372 0.000000
0.793908 0.836917 0.000000
0.340731 0.490351 0.000000
0.266197 0.634698 0.000000
0.056785 0.442144 0.000000
0.168486 0.047061 0.000000
0.222227 0.126001 0.000000
0.271263 0.508077 0.000000
0.702115 0.370261 0.000000
0.383775 0.211437 0.000000
0.498424 0.055850 0.000000
0.782856 0.567825 0.000000
0.642165 0.377863 0.000000
0.620481 0.271007 0.000000
0.107003 0.718942 0.000000
0.428482 0.562352 0.000000
0.460960 0.778456 0.000000
0.660890 0.320457 0.000000
0.942324 0.734015 0.000000
0.759367 0.708450 0.000000
0.177028 0.864085 0.000000
0.449071 0.218186 0.000000
0.673443 0.055725 0.000000
0.328759 0.259892 0.000000
0.853189 0.943579 0.000000
0.853249 0.474845 0.000000
0.882798 0.643630 0.000000
0.222666 0.899152 0.000000
0.434706 0.054623 0.000000
0.109120 0.248289 0.000000
0.284792 0.451203 0.000000
0.691200 0.488474 0.000000
0.558390 0.723992 0.000000
0.791809 0.946975 0.000000
0.263398 0.287523 0.000000
0.583244 0.383431 0.000000
0.344386 0.429641 0.000000
0.676718 0.165669 0.000000
0.621670 0.435734 0.000000
0.133924 0.821328 0.000000
0.885509 0.289938 0.000000
0.303845 0.678782 0.000000
0.400148 0.513681 0.000000
0.205322 0.951334 0.000000
0.349086 0.369115 0.000000
0.494659 0.324464 0.000000
0.320401 0.604991 0.000000
0.242043 0.843368 0.000000
0.093730 0.779889 0.000000
0.111221 0.185608 0.000000
0.892059 0.892319 0.000000
0.438533 0.943379 0.000000
0.650454 0.219722 0.000000
0.945480 0.793679 0.000000
0.941841 0.323401 0.000000
0.830054 0.608357 0.000000
0.951001 0.083615 0.000000
0.165323 0.697073 0.000000
0.547584 0.567977 0.000000
0.055216 0.622429 0.000000
0.196949 0.803151 0.000000
0.457597 0.432303 0.000000
0.525667 0.778201 0.000000
0.819827 0.896701 0.000000
0.305776 0.326939 0.000000
0.526398 0.673064 0.000000
0.824190 0.378356 0.000000
0.424706 0.161785 0.000000
0.544424 0.342427 0.000000
0.365512 0.556562 0.000000
0.733330 0.943575 0.000000
0.576471 0.485844 0.000000
0.717188 0.218717 0.000000
0.944294 0.557858 0.000000
0.622643 0.720698 0.000000
0.428459 0.725094 0.000000
0.829151 0.254667 0.000000
0.049175 0.948554 0.000000
0.102797 0.941905 0.000000
0.950348 0.916208 0.000000
0.456860 0.370090 0.000000
0.055741 0.211499 0.000000
0.401486 0.460004 0.000000
0.778040 0.216660 0.000000
0.395977 0.776420 0.000000
0.398057 0.106160 0.000000
0.944897 0.856035 0.000000
0.685732 0.428915 0.000000
0.934901 0.444321 0.000000
0.056538 0.153906 0.000000
0.244743 0.350864 0.000000
0.838809 0.541690 0.000000
0.522083 0.112463 0.000000
0.653077 0.772625 0.000000
0.734631 0.527904 0.000000
0.487597 0.166238 0.000000
0.613442 0.603151 0.000000
0.948870 0.499204 0.000000
0.404619 0.887284 0.000000
0.827550 0.315049 0.000000
0.590197 0.668786 0.000000
0.294617 0.736502 0.000000
0.222133 0.472214 0.000000
0.734872 0.054828 0.000000
0.261506 0.784794 0.000000
0.249102 0.699863 0.000000
0.776456 0.774821 0.000000
0.218105 0.249039 0.000000
0.805687 0.436113 0.000000
0.549213 0.279202 0.000000
0.485106 0.558888 0.000000
0.887464 0.763288 0.000000
0.772195 0.635834 0.000000
0.050930 0.743329 0.000000
0.054849 0.269514 0.000000
0.614023 0.167733 0.000000
0.403569 0.345225 0.000000
0.526247 0.514191 0.000000
0.368944 0.832396 0.000000
0.112705 0.123751 0.000000
0.127128 0.310410 0.000000
0.363959 0.307000 0.000000
0.305096 0.833994 0.000000
0.796350 0.056590 0.000000
0.582651 0.222704 0.000000
0.849675 0.854425 0.000000
0.482322 0.266506 0.000000
0.836929 0.795073 0.000000
0.773612 0.343556 0.000000
0.291822 0.390646 0.000000
0.114280 0.879093 0.000000
0.061659 0.324886 0.000000
0.439132 0.305679 0.000000
0.793835 0.159524 0.000000
0.883238 0.352078 0.000000
0.518583 0.220262 0.000000
0.690168 0.268833 0.000000
0.211049 0.660892 0.000000
0.165704 0.213889 0.000000
0.589478 0.776086 0.000000
0.600093 0.325232 0.000000
0.460924 0.109505 0.000000
0.499847 0.616269 0.000000
0.405347 0.670183 0.000000
0.887268 0.581411 0.000000
0.055231 0.561703 0.000000
0.766251 0.276653 0.000000
0.618104 0.829842 0.000000
0.055191 0.046326 0.000000
0.894921 0.517432 0.000000
POLYGONS 590 2360
3 67 0 328
3 299 269 110
3 4 328 0
3 328 123 110
3 328 110 67
3 67 110 66
3 65 66 269
3 261 269 229
3 269 261 65
3 269 66 110
3 209 261 229
3 269 299 229
3 65 261 64
3 328 4 5
3 123 5 185
3 5 123 328
3 186 68 171
3 6 185 5
3 185 171 68
3 185 68 123
3 123 68 299
3 126 229 299
3 229 126 318
3 126 186 76
3 126 299 68
3 76 186 101
3 126 76 318
3 68 186 126
3 318 76 287
3 185 6 171
3 123 299 110
3 209 229 318
3 63 64 294
3 311 294 300
3 294 64 261
3 168 311 97
3 294 311 63
3 209 294 261
3 63 311 62
3 61 62 168
3 61 184 60
3 184 61 168
3 114 184 168
3 170 60 184
3 62 311 168
3 209 300 294
3 124 97 300
3 300 97 311
3 95 287 81
3 95 209 318
3 270 124 81
3 95 81 300
3 300 209 95
3 124 300 81
3 70 119 116
3 119 184 114
3 116 119 114
3 170 184 119
3 282 116 83
3 124 116 114
3 124 83 116
3 116 282 70
3 114 97 124
3 91 70 282
3 214 81 287
3 114 168 97
3 287 95 318
3 89 119 70
3 287 76 125
3 171 7 175
3 7 171 6
3 8 9 175
3 135 175 86
3 8 175 7
3 171 175 130
3 101 186 130
3 101 130 135
3 101 73 79
3 73 101 135
3 265 73 135
3 79 73 189
3 130 175 135
3 101 79 125
3 86 175 9
3 101 125 76
3 247 73 265
3 265 86 208
3 10 11 208
3 321 208 190
3 10 208 86
3 86 9 10
3 265 208 321
3 189 247 201
3 73 247 189
3 247 275 201
3 275 247 321
3 272 275 321
3 306 201 315
3 265 321 247
3 189 201 143
3 190 208 11
3 265 135 86
3 79 189 203
3 270 214 244
3 81 214 270
3 203 244 214
3 125 79 203
3 224 309 244
3 203 214 125
3 124 270 83
3 270 244 309
3 83 210 282
3 210 83 309
3 216 182 210
3 224 216 309
3 182 216 262
3 216 210 309
3 83 270 309
3 282 210 187
3 244 203 301
3 125 214 287
3 301 296 224
3 296 301 312
3 143 306 312
3 203 189 143
3 296 312 260
3 143 312 301
3 301 203 143
3 225 260 312
3 161 262 216
3 224 296 161
3 262 161 241
3 161 216 224
3 260 155 241
3 290 85 297
3 241 85 262
3 260 241 161
3 296 260 161
3 182 262 222
3 109 85 241
3 301 224 244
3 201 306 143
3 182 187 210
3 306 225 312
3 186 171 130
3 85 222 262
3 58 59 325
3 239 165 150
3 325 239 58
3 170 325 59
3 325 112 239
3 59 60 170
3 58 239 57
3 56 57 150
3 293 150 194
3 150 293 56
3 165 194 150
3 228 293 194
3 57 239 150
3 56 293 55
3 325 170 89
3 112 89 99
3 89 112 325
3 99 91 153
3 99 89 70
3 183 317 153
3 112 99 78
3 170 119 89
3 78 99 153
3 165 78 237
3 78 165 112
3 237 317 149
3 317 237 78
3 285 149 317
3 237 148 194
3 78 153 317
3 237 194 165
3 240 149 284
3 112 165 239
3 99 70 91
3 149 148 237
3 54 55 92
3 54 92 53
3 55 293 92
3 142 92 310
3 53 92 142
3 228 92 293
3 3 52 257
3 51 257 258
3 142 257 52
3 142 258 257
3 257 51 3
3 52 53 142
3 219 92 228
3 310 219 200
3 310 92 219
3 240 200 219
3 240 148 149
3 207 200 227
3 240 219 148
3 228 148 219
3 310 200 166
3 258 166 50
3 258 310 166
3 50 166 49
3 258 50 51
3 166 223 49
3 223 166 207
3 223 207 156
3 49 223 48
3 200 207 166
3 227 200 240
3 310 258 142
3 194 148 228
3 157 153 91
3 183 285 317
3 183 157 226
3 98 226 157
3 187 182 98
3 138 226 141
3 98 157 187
3 153 157 183
3 183 226 221
3 281 284 149
3 281 285 221
3 221 138 137
3 221 285 183
3 137 138 323
3 221 137 281
3 226 138 221
3 146 281 137
3 226 98 249
3 157 91 187
3 323 138 141
3 141 249 195
3 85 195 222
3 195 85 290
3 141 195 84
3 222 195 249
3 98 182 249
3 84 195 290
3 137 255 264
3 137 323 255
3 255 323 167
3 196 264 255
3 84 322 167
3 75 167 245
3 167 75 255
3 84 167 323
3 323 141 84
3 196 255 75
3 290 322 84
3 141 226 249
3 222 249 182
3 146 137 264
3 227 284 302
3 227 240 284
3 164 302 298
3 146 302 284
3 298 302 146
3 227 302 127
3 284 281 146
3 127 302 164
3 48 156 47
3 223 156 48
3 80 47 156
3 80 127 164
3 47 80 46
3 80 156 127
3 127 156 207
3 164 162 80
3 207 227 127
3 278 298 111
3 298 264 111
3 93 169 111
3 242 93 196
3 107 231 169
3 93 111 196
3 146 264 298
3 278 111 169
3 162 46 80
3 164 278 162
3 162 278 231
3 46 162 45
3 45 231 44
3 231 45 162
3 107 44 231
3 278 169 231
3 169 93 103
3 164 298 278
3 196 111 264
3 196 75 242
3 149 285 281
3 282 187 91
3 275 315 201
3 190 12 117
3 12 190 11
3 190 117 104
3 117 12 13
3 117 13 14
3 295 104 105
3 190 104 272
3 275 180 315
3 275 272 180
3 180 295 304
3 180 272 104
3 304 295 232
3 180 304 315
3 104 295 180
3 315 304 289
3 104 117 105
3 289 306 315
3 202 105 117
3 202 14 15
3 202 283 72
3 283 202 15
3 283 15 16
3 134 72 77
3 202 72 105
3 217 295 105
3 295 217 232
3 217 134 252
3 217 105 72
3 326 316 252
3 217 252 232
3 72 134 217
3 304 232 193
3 263 252 134
3 202 117 14
3 316 232 252
3 225 248 155
3 248 225 289
3 289 193 320
3 193 289 304
3 192 215 320
3 289 320 248
3 306 289 225
3 248 320 215
3 109 155 128
3 109 241 155
3 251 128 218
3 215 128 155
3 215 218 128
3 128 251 109
3 155 248 215
3 109 251 297
3 320 193 197
3 297 85 109
3 192 197 188
3 192 218 215
3 174 188 197
3 326 174 316
3 133 188 308
3 174 197 316
3 197 193 316
3 192 188 267
3 218 267 106
3 218 192 267
3 106 267 211
3 218 106 251
3 267 69 211
3 69 267 133
3 69 133 288
3 274 211 69
3 188 133 267
3 136 106 211
3 308 188 174
3 192 320 197
3 193 232 316
3 251 106 88
3 77 72 283
3 321 190 272
3 303 77 283
3 303 16 17
3 17 18 71
3 82 90 71
3 17 71 303
3 303 71 90
3 313 263 134
3 313 77 90
3 90 159 179
3 82 159 90
3 102 179 159
3 90 179 313
3 77 303 90
3 313 179 263
3 71 18 140
3 134 77 313
3 140 19 236
3 19 140 18
3 19 20 236
3 20 19 1
3 236 20 21
3 140 236 82
3 147 159 82
3 159 147 100
3 147 21 22
3 147 82 236
3 147 22 100
3 236 21 147
3 100 22 23
3 140 82 71
3 102 159 100
3 326 308 174
3 308 326 279
3 256 279 326
3 263 179 256
3 314 279 220
3 256 326 263
3 252 263 326
3 308 279 246
3 288 246 151
3 288 133 246
3 288 151 205
3 151 246 314
3 151 314 178
3 205 151 268
3 246 279 314
3 69 288 172
3 279 256 220
3 246 133 308
3 220 102 74
3 102 220 256
3 74 23 24
3 74 102 100
3 220 74 234
3 179 102 256
3 234 74 24
3 178 268 151
3 314 234 178
3 178 234 25
3 268 178 26
3 25 26 178
3 26 27 268
3 234 24 25
3 205 268 329
3 314 220 234
3 23 74 100
3 205 172 288
3 283 16 303
3 268 27 277
3 290 238 322
3 290 297 238
3 238 88 276
3 88 238 297
3 276 88 136
3 322 238 176
3 251 88 297
3 176 238 276
3 245 176 280
3 176 245 322
3 212 280 254
3 280 212 245
3 163 254 280
3 319 212 254
3 176 276 280
3 212 242 75
3 280 276 163
3 212 75 245
3 96 163 276
3 96 136 158
3 96 158 145
3 158 136 274
3 292 145 158
3 199 145 292
3 88 106 136
3 96 145 163
3 152 254 163
3 254 152 273
3 152 199 129
3 152 163 145
3 87 129 286
3 152 129 273
3 145 199 152
3 273 129 118
3 158 274 191
3 96 276 136
3 136 211 274
3 319 254 273
3 103 107 169
3 93 173 103
3 154 173 327
3 319 173 242
3 108 154 121
3 173 154 103
3 242 212 319
3 103 154 115
3 107 43 44
3 43 107 115
3 115 108 42
3 115 107 103
3 42 108 41
3 115 42 43
3 154 108 115
3 327 173 319
3 242 173 93
3 177 108 121
3 121 327 118
3 118 87 94
3 327 273 118
3 94 87 144
3 118 94 121
3 319 273 327
3 121 94 177
3 41 177 40
3 41 108 177
3 40 177 250
3 39 250 213
3 250 177 94
3 144 213 250
3 250 39 40
3 94 144 250
3 144 87 181
3 121 154 327
3 129 87 118
3 199 286 129
3 322 245 167
3 191 172 271
3 191 292 158
3 235 271 324
3 271 235 191
3 329 324 271
3 235 324 206
3 172 205 271
3 191 235 292
3 122 120 199
3 292 235 122
3 122 160 120
3 160 122 206
3 113 160 206
3 120 160 291
3 235 206 122
3 199 120 286
3 206 324 139
3 191 274 172
3 253 139 324
3 253 329 277
3 28 29 253
3 28 277 27
3 28 253 277
3 205 329 271
3 253 29 139
3 113 198 160
3 206 139 113
3 113 139 30
3 160 198 291
3 113 31 198
3 31 113 30
3 291 198 233
3 139 29 30
3 32 198 31
3 324 329 253
3 268 277 329
3 120 291 307
3 243 144 181
3 181 286 307
3 305 132 230
3 132 305 307
3 181 305 243
3 307 305 181
3 120 307 286
3 243 305 230
3 213 243 204
3 213 144 243
3 38 204 37
3 204 38 213
3 131 37 204
3 243 230 204
3 213 38 39
3 204 230 131
3 181 87 286
3 259 230 266
3 266 132 233
3 233 32 33
3 132 291 233
3 233 33 266
3 307 291 132
3 266 33 34
3 131 259 36
3 131 230 259
3 36 259 35
3 131 36 37
3 34 35 259
3 35 2 36
3 259 266 34
3 266 230 132
3 32 233 198
3 122 199 292
3 69 172 274
3 225 155 260
POINT_DATA 330
SCALARS P float 1
LOOKUP_TABLE default
2098.785106
103.170887
-307.127385
-1124.338912
6820.101315
1670.128274
5592.541762
1584.443938
3159.757043
2331.681437
1466.208217
2015.762181
1213.886974
1465.045971
567.001244
1301.445969
17.588152
606.427447
7.751155
-911.001564
908.031374
376.865891
-154.027092
749.889324
-729.260317
921.512156
-769.696303
873.486566
-863.040868
202.704469
-42.513830
-288.766103
613.388752
-1835.346839
-1266.702854
565.158375
-107.491518
-1815.144354
-2488.622831
-1312.539755
-1057.720884
-1206.124972
-2257.462337
-539.811726
-4324.571527
757.380085
-5837.676743
769.367968
-8007.359835
-8467.989457
-3073.803402
-5167.061036
2470.832630
-2002.296588
-3733.361383
1824.753022
866.976631
517.748479
-645.167173
1775.085654
-428.493211
1608.391175
839.350365
1651.096320
2116.269407
2851.476263
1041.624314
4637.873838
6675.996920
5.829982
-4434.776681
-1384.348883
1253.597111
58.449561
604.337065
1845.781861
4723.560444
-1023.067399
-3222.733828
3435.927995
4203.679485
2309.760887
-18.552628
1204.562922
-5024.435156
-1154.402100
1911.548537
455.521092
368.858486
2830.277647
256.168058
6856.005717
1325.948256
2427.362845
-2751.587288
649.957513
-150.847419
2985.313497
4463.008011
-1760.567765
-1608.606786
-848.364347
1123.858213
-2039.835210
892.324676
175.651297
1451.121285
795.760966
-76.348973
-1561.124348
7248.306182
-2169.708427
480.007663
1783.205259
-702.277266
-1201.050074
1865.163138
1222.282674
-10.270626
1875.435664
2191.162234
-1106.530391
-1137.628829
5514.286274
-1403.529930
74.293030
-525.963119
1537.976799
1489.409746
-1426.009376
3694.523610
1157.882499
-8086.219994
-24.487852
618.014546
3053.682455
-1638.946931
-3194.665994
-12022.796961
-1978.452863
3585.680134
5571.704266
-4678.430719
328.507747
2541.684865
-640.358543
-2329.355528
1363.760165
-1585.929286
16346.827764
-5527.007780
-204.668291
1188.893447
-4504.305832
-1746.436901
280.298002
-8454.761414
-2226.640814
295.909587
983.942919
-3799.224531
2226.340388
-2713.948159
-1434.784237
-6913.636138
3536.502010
-21359.255256
-4411.344945
-1868.018590
-4119.298764
-2963.117822
2869.847627
-783.616225
-755.742154
-395.275243
-642.151224
-2190.175251
174.647755
-548.890888
-1187.935357
953.915366
-2137.973981
972.809927
-4665.992185
1656.543656
-3620.984292
-343.313419
-4996.069388
669.682128
353.069011
1015.609472
-1553.595529
373.939940
541.695243
8313.762771
1543.396534
-2476.747641
214.816243
-1613.464840
-1263.488202
12865.321236
1875.600192
1207.161888
824.061702
4891.601320
-232.063411
2436.982261
-17464.621587
1297.841463
2203.470980
2252.532884
-464.057782
41.344956
3038.448971
518.920264
106.207040
-339.402380
736.778681
-168.628291
-1866.200111
-421.175007
11386.282926
4091.018466
23567.480880
1508.350046
1151.672818
3292.700549
6473.036228
-2312.570084
4945.354952
-6515.167529
-705.553842
665.486101
808.309166
-169.038405
38.869581
-2809.347681
-15968.948773
-2214.118659
-2158.664116
-13875.070300
1994.125403
-2995.620990
-11106.435249
1279.385938
-1260.539662
-269.557436
1819.506807
76.393601
-8482.665138
-1536.270083
-2013.462711
-125.293064
2494.942838
-353.711240
-180.974732
533.328750
-12433.934205
15387.775579
-689.598668
-847.403976
1242.009277
-2979.004803
287.180176
-779.758135
1112.973019
5858.851105
-43.400579
944.782081
-678.986534
799.232032
1634.187561
1410.616213
-1585.069386
1309.435009
-205.837086
1556.326733
-1231.719169
834.783753
-113.021393
-175.992748
3291.672725
-381.417605
354.711346
-6290.413165
-20008.544382
671.052245
945.047467
668.625987
1139.043345
-2757.891611
4941.186934
672.840157
-7636.498139
-447.518726
1223.947824
-1522.527369
3508.705815
1302.320167
-1120.037512
226.316849
838.547675
-1462.283594
2566.649637
-120.617207
13980.639101
-1421.364123
-5502.676069
558.444115
-1254.113618
-5665.606050
2065.525106
2968.947327
1887.533982
919.489383
1961.124956
986.171953
15712.466412
29.741313
-621.664341
400.503617
1741.026932
5542.673967
5300.113362
-2087.598872
-1510.168968
668.257873
202.845720
-5044.593135
-247.465430
