# vtk DataFile Version 2.0
patchtest_tri3_mix
ASCII
DATASET POLYDATA
POINTS 400 float
0.000000 0.000000 0.000000
1.000000 0.000000 0.000000
1.000000 1.000000 0.000000
0.000000 1.000000 0.000000
0.055556 0.000000 0.000000
0.111111 0.000000 0.000000
0.166667 0.000000 0.000000
0.222222 0.000000 0.000000
0.277778 0.000000 0.000000
0.333333 0.000000 0.000000
0.388889 0.000000 0.000000
0.444444 0.000000 0.000000
0.500000 0.000000 0.000000
0.555556 0.000000 0.000000
0.611111 0.000000 0.000000
0.666667 0.000000 0.000000
0.722222 0.000000 0.000000
0.777778 0.000000 0.000000
0.833333 0.000000 0.000000
0.888889 0.000000 0.000000
0.944444 0.000000 0.000000
1.000000 0.055556 0.000000
1.000000 0.111111 0.000000
1.000000 0.166667 0.000000
1.000000 0.222222 0.000000
1.000000 0.277778 0.000000
1.000000 0.333333 0.000000
1.000000 0.388889 0.000000
1.000000 0.444444 0.000000
1.000000 0.500000 0.000000
1.000000 0.555556 0.000000
1.000000 0.611111 0.000000
1.000000 0.666667 0.000000
1.000000 0.722222 0.000000
1.000000 0.777778 0.000000
1.000000 0.833333 0.000000
1.000000 0.888889 0.000000
1.000000 0.944444 0.000000
0.944444 1.000000 0.000000
0.888889 1.000000 0.000000
0.833333 1.000000 0.000000
0.777778 1.000000 0.000000
0.722222 1.000000 0.000000
0.666667 1.000000 0.000000
0.611111 1.000000 0.000000
0.555556 1.000000 0.000000
0.500000 1.000000 0.000000
0.444444 1.000000 0.000000
0.388889 1.000000 0.000000
0.333333 1.000000 0.000000
0.277778 1.000000 0.000000
0.222222 1.000000 0.000000
0.166667 1.000000 0.000000
0.111111 1.000000 0.000000
0.055556 1.000000 0.000000
0.000000 0.944444 0.000000
0.000000 0.888889 0.000000
0.000000 0.833333 0.000000
0.000000 0.777778 0.000000
0.000000 0.722222 0.000000
0.000000 0.666667 0.000000
0.000000 0.611111 0.000000
0.000000 0.555556 0.000000
0.000000 0.500000 0.000000
0.000000 0.444444 0.000000
0.000000 0.388889 0.000000
0.000000 0.333333 0.000000
0.000000 0.277778 0.000000
0.000000 0.222222 0.000000
0.000000 0.166667 0.000000
0.000000 0.111111 0.000000
0.000000 0.055556 0.000000
0.563879 0.200472 0.000000
0.677541 0.812851 0.000000
0.533939 0.149368 0.000000
0.620762 0.898936 0.000000
0.471373 0.237199 0.000000
0.900710 0.385425 0.000000
0.362168 0.049479 0.000000
0.296591 0.623208 0.000000
0.851030 0.410879 0.000000
0.339070 0.768847 0.000000
0.900417 0.273131 0.000000
0.140888 0.050241 0.000000
0.292199 0.737510 0.000000
0.092063 0.052067 0.000000
0.397445 0.572287 0.000000
0.555943 0.448514 0.000000
0.435751 0.772029 0.000000
0.950273 0.871812 0.000000
0.148633 0.645602 0.000000
0.303260 0.452574 0.000000
0.388796 0.741570 0.000000
0.694896 0.709069 0.000000
0.907103 0.836184 0.000000
0.797838 0.665655 0.000000
0.238754 0.881334 0.000000
0.950168 0.415412 0.000000
0.949428 0.583495 0.000000
0.346855 0.597224 0.000000
0.202314 0.450868 0.000000
0.607630 0.422790 0.000000
0.845148 0.752905 0.000000
0.632831 0.784213 0.000000
0.149600 0.589129 0.000000
0.199615 0.341323 0.000000
0.491100 0.690727 0.000000
0.503239 0.472256 0.000000
0.642636 0.949604 0.000000
0.363535 0.148188 0.000000
0.048920 0.196569 0.000000
0.100192 0.559245 0.000000
0.645398 0.676309 0.000000
0.519036 0.317111 0.000000
0.640850 0.730705 0.000000
0.950232 0.248785 0.000000
0.048936 0.252639 0.000000
0.164688 0.096413 0.000000
0.290226 0.795005 0.000000
0.302109 0.343382 0.000000
0.050829 0.141613 0.000000
0.697766 0.654253 0.000000
0.588294 0.954469 0.000000
0.246629 0.649603 0.000000
0.850624 0.467429 0.000000
0.898860 0.611196 0.000000
0.650657 0.565920 0.000000
0.792707 0.787779 0.000000
0.338704 0.198616 0.000000
0.252592 0.368299 0.000000
0.500392 0.526370 0.000000
0.899215 0.780765 0.000000
0.098182 0.899176 0.000000
0.252447 0.148289 0.000000
0.351477 0.482767 0.000000
0.359703 0.950869 0.000000
0.566421 0.340152 0.000000
0.100599 0.392873 0.000000
0.196996 0.676078 0.000000
0.695934 0.051135 0.000000
0.780815 0.100793 0.000000
0.450981 0.493771 0.000000
0.250819 0.252509 0.000000
0.899521 0.554516 0.000000
0.670561 0.101977 0.000000
0.150355 0.310656 0.000000
0.951286 0.194383 0.000000
0.701496 0.542140 0.000000
0.048913 0.910727 0.000000
0.662762 0.863937 0.000000
0.453728 0.439290 0.000000
0.901007 0.329338 0.000000
0.701581 0.953021 0.000000
0.546918 0.612437 0.000000
0.049823 0.640974 0.000000
0.592339 0.698238 0.000000
0.850479 0.190448 0.000000
0.096625 0.225870 0.000000
0.941990 0.939600 0.000000
0.306869 0.049804 0.000000
0.579388 0.805713 0.000000
0.949727 0.527376 0.000000
0.043233 0.043051 0.000000
0.846768 0.695939 0.000000
0.334167 0.890310 0.000000
0.392229 0.301188 0.000000
0.098721 0.728414 0.000000
0.202179 0.395843 0.000000
0.897967 0.667928 0.000000
0.787675 0.898573 0.000000
0.467628 0.333776 0.000000
0.604399 0.478727 0.000000
0.050037 0.585188 0.000000
0.474258 0.049581 0.000000
0.442982 0.659896 0.000000
0.494754 0.635822 0.000000
0.560096 0.393886 0.000000
0.099136 0.671631 0.000000
0.848280 0.638551 0.000000
0.759076 0.240729 0.000000
0.358375 0.362071 0.000000
0.390720 0.098243 0.000000
0.098996 0.281962 0.000000
0.145817 0.146035 0.000000
0.699475 0.153163 0.000000
0.732913 0.900884 0.000000
0.703006 0.485214 0.000000
0.849374 0.581306 0.000000
0.307525 0.149702 0.000000
0.391945 0.684957 0.000000
0.250310 0.536094 0.000000
0.512749 0.367065 0.000000
0.850123 0.524263 0.000000
0.200645 0.285382 0.000000
0.306918 0.950229 0.000000
0.188779 0.181852 0.000000
0.294378 0.680234 0.000000
0.443272 0.290992 0.000000
0.446009 0.604326 0.000000
0.151356 0.477329 0.000000
0.611528 0.366010 0.000000
0.586600 0.751947 0.000000
0.704198 0.427391 0.000000
0.615569 0.101551 0.000000
0.195504 0.954891 0.000000
0.657354 0.395383 0.000000
0.560133 0.100407 0.000000
0.100919 0.448130 0.000000
0.049655 0.696804 0.000000
0.497718 0.580989 0.000000
0.688895 0.761943 0.000000
0.394884 0.628595 0.000000
0.549755 0.557766 0.000000
0.385636 0.798388 0.000000
0.049294 0.860329 0.000000
0.143162 0.201733 0.000000
0.235659 0.197538 0.000000
0.622765 0.838083 0.000000
0.530154 0.049985 0.000000
0.532471 0.243545 0.000000
0.144342 0.940452 0.000000
0.349173 0.540255 0.000000
0.147428 0.255989 0.000000
0.146021 0.878650 0.000000
0.145971 0.818296 0.000000
0.804429 0.265922 0.000000
0.744395 0.745820 0.000000
0.948604 0.695697 0.000000
0.814519 0.951025 0.000000
0.801510 0.435796 0.000000
0.701702 0.308553 0.000000
0.472625 0.955378 0.000000
0.764333 0.845369 0.000000
0.504029 0.099292 0.000000
0.851534 0.354660 0.000000
0.494552 0.279221 0.000000
0.431481 0.887671 0.000000
0.244805 0.706784 0.000000
0.284504 0.200317 0.000000
0.529496 0.832674 0.000000
0.146725 0.760012 0.000000
0.901967 0.898815 0.000000
0.100695 0.503541 0.000000
0.458820 0.386202 0.000000
0.198404 0.619221 0.000000
0.569489 0.911625 0.000000
0.899987 0.497968 0.000000
0.192774 0.848458 0.000000
0.482748 0.801341 0.000000
0.951706 0.808654 0.000000
0.900349 0.441602 0.000000
0.527746 0.948140 0.000000
0.105622 0.106747 0.000000
0.344361 0.654086 0.000000
0.897059 0.102473 0.000000
0.704156 0.367879 0.000000
0.757528 0.949828 0.000000
0.909268 0.049824 0.000000
0.201457 0.137552 0.000000
0.864907 0.858827 0.000000
0.949960 0.471340 0.000000
0.802706 0.322802 0.000000
0.252026 0.048160 0.000000
0.392207 0.197847 0.000000
0.859785 0.050304 0.000000
0.364348 0.251097 0.000000
0.383081 0.854909 0.000000
0.336686 0.827843 0.000000
0.193780 0.905852 0.000000
0.099640 0.615268 0.000000
0.656480 0.334391 0.000000
0.648331 0.621367 0.000000
0.100405 0.337322 0.000000
0.098364 0.843259 0.000000
0.199828 0.562719 0.000000
0.904108 0.163083 0.000000
0.725855 0.102720 0.000000
0.505436 0.196037 0.000000
0.876957 0.950023 0.000000
0.814314 0.847677 0.000000
0.852042 0.298584 0.000000
0.049333 0.807372 0.000000
0.750419 0.050889 0.000000
0.842646 0.904557 0.000000
0.533532 0.776251 0.000000
0.195301 0.234019 0.000000
0.246801 0.314023 0.000000
0.283818 0.905531 0.000000
0.950278 0.303874 0.000000
0.399718 0.515867 0.000000
0.539053 0.721455 0.000000
0.752493 0.346650 0.000000
0.897146 0.724566 0.000000
0.419775 0.947252 0.000000
0.948931 0.751669 0.000000
0.050393 0.474074 0.000000
0.448574 0.548906 0.000000
0.860199 0.139545 0.000000
0.150561 0.533041 0.000000
0.585719 0.050451 0.000000
0.194261 0.790833 0.000000
0.195597 0.733312 0.000000
0.241343 0.822416 0.000000
0.751509 0.517858 0.000000
0.049817 0.308114 0.000000
0.849758 0.242136 0.000000
0.418167 0.245668 0.000000
0.523888 0.888834 0.000000
0.147701 0.702515 0.000000
0.094278 0.951680 0.000000
0.354197 0.424003 0.000000
0.300945 0.509445 0.000000
0.575957 0.861135 0.000000
0.750386 0.574992 0.000000
0.752545 0.403148 0.000000
0.559322 0.285712 0.000000
0.748996 0.632071 0.000000
0.151514 0.422001 0.000000
0.310884 0.247166 0.000000
0.414302 0.347896 0.000000
0.596143 0.643961 0.000000
0.801073 0.492878 0.000000
0.652733 0.266060 0.000000
0.799280 0.607605 0.000000
0.949035 0.639634 0.000000
0.341724 0.711174 0.000000
0.596362 0.249116 0.000000
0.418161 0.049340 0.000000
0.801871 0.379077 0.000000
0.049521 0.752443 0.000000
0.150465 0.366812 0.000000
0.599030 0.589231 0.000000
0.747200 0.689129 0.000000
0.753427 0.292988 0.000000
0.611631 0.305390 0.000000
0.279165 0.099454 0.000000
0.298766 0.566323 0.000000
0.051300 0.092115 0.000000
0.201208 0.506571 0.000000
0.640919 0.050790 0.000000
0.305719 0.396283 0.000000
0.098224 0.785848 0.000000
0.243068 0.764353 0.000000
0.655089 0.453298 0.000000
0.446443 0.193070 0.000000
0.290300 0.291754 0.000000
0.334781 0.099440 0.000000
0.050332 0.418731 0.000000
0.706921 0.253590 0.000000
0.486736 0.745804 0.000000
0.699808 0.598489 0.000000
0.401969 0.459248 0.000000
0.590057 0.151672 0.000000
0.447422 0.098442 0.000000
0.341713 0.304200 0.000000
0.288555 0.852024 0.000000
0.850439 0.806442 0.000000
0.809363 0.149122 0.000000
0.800332 0.550121 0.000000
0.543551 0.667007 0.000000
0.253637 0.423584 0.000000
0.478976 0.856257 0.000000
0.383338 0.907428 0.000000
0.733916 0.799361 0.000000
0.795947 0.203715 0.000000
0.050254 0.529544 0.000000
0.097205 0.167091 0.000000
0.477036 0.910943 0.000000
0.601626 0.534148 0.000000
0.620950 0.203507 0.000000
0.804794 0.049100 0.000000
0.950354 0.359578 0.000000
0.432230 0.828975 0.000000
0.949733 0.139760 0.000000
0.404942 0.402575 0.000000
0.756715 0.153818 0.000000
0.418998 0.146429 0.000000
0.252124 0.479665 0.000000
0.679342 0.907633 0.000000
0.439416 0.715700 0.000000
0.713302 0.853690 0.000000
0.752320 0.460559 0.000000
0.673761 0.207525 0.000000
0.507067 0.419117 0.000000
0.248467 0.592734 0.000000
0.247436 0.945155 0.000000
0.900504 0.217795 0.000000
0.224926 0.094393 0.000000
0.195592 0.048867 0.000000
0.045259 0.957542 0.000000
0.795783 0.725037 0.000000
0.730057 0.199602 0.000000
0.949905 0.090558 0.000000
0.645317 0.153294 0.000000
0.835984 0.095821 0.000000
0.652834 0.509960 0.000000
0.476658 0.147479 0.000000
0.050263 0.363370 0.000000
0.552571 0.503093 0.000000
0.957497 0.042471 0.000000
POLYGONS 726 2904
3 0 162 71
3 162 0 4
3 71 162 337
3 162 85 337
3 85 162 4
3 85 4 5
3 120 337 252
3 71 337 70
3 69 70 120
3 68 69 110
3 157 110 366
3 120 110 69
3 120 366 110
3 68 110 116
3 70 337 120
3 116 110 157
3 252 337 85
3 5 6 83
3 83 6 388
3 83 252 85
3 387 388 262
3 7 388 6
3 262 388 7
3 83 388 117
3 117 388 387
3 215 366 183
3 366 120 252
3 183 366 252
3 366 215 157
3 117 258 183
3 258 117 387
3 183 195 215
3 195 183 258
3 285 195 216
3 117 183 252
3 252 83 117
3 157 215 222
3 216 195 258
3 85 5 83
3 285 215 195
3 66 67 304
3 116 67 68
3 304 67 116
3 304 182 272
3 182 304 116
3 272 182 145
3 66 304 397
3 157 182 116
3 397 304 272
3 64 65 347
3 63 64 295
3 347 295 64
3 137 347 397
3 207 295 347
3 347 65 397
3 65 66 397
3 365 63 295
3 137 397 272
3 145 330 272
3 145 222 193
3 330 145 105
3 272 330 137
3 193 105 145
3 142 193 285
3 167 105 129
3 193 222 285
3 157 222 182
3 330 105 167
3 207 242 295
3 207 137 317
3 242 207 199
3 207 347 137
3 317 167 100
3 317 137 330
3 338 199 100
3 100 199 317
3 100 167 360
3 317 199 207
3 330 167 317
3 298 242 199
3 286 105 193
3 145 182 222
3 215 285 222
3 365 295 242
3 258 387 133
3 262 8 159
3 8 262 7
3 159 8 9
3 335 262 159
3 78 346 159
3 78 9 10
3 109 188 346
3 78 159 9
3 335 159 346
3 238 216 133
3 216 258 133
3 133 387 335
3 188 133 335
3 238 188 128
3 188 238 133
3 188 335 346
3 318 238 128
3 188 109 128
3 142 216 238
3 346 78 181
3 387 262 335
3 327 181 78
3 327 10 11
3 181 327 353
3 181 109 346
3 173 353 327
3 173 11 12
3 396 353 233
3 173 327 11
3 181 353 376
3 128 263 265
3 263 109 376
3 306 263 344
3 263 128 109
3 376 396 344
3 396 376 353
3 76 306 344
3 277 76 344
3 76 219 235
3 344 263 376
3 109 181 376
3 306 76 197
3 277 344 396
3 78 10 327
3 263 306 265
3 286 142 345
3 286 193 142
3 345 142 318
3 286 345 119
3 345 354 119
3 354 345 318
3 354 318 265
3 340 119 180
3 142 238 318
3 286 119 129
3 360 377 100
3 167 129 360
3 360 129 340
3 377 360 91
3 134 91 310
3 340 91 360
3 340 310 91
3 377 91 311
3 129 119 340
3 134 311 91
3 180 119 354
3 286 129 105
3 354 165 180
3 265 306 165
3 319 165 197
3 180 165 319
3 197 235 170
3 165 306 197
3 243 170 191
3 197 170 319
3 76 235 197
3 319 170 243
3 351 310 374
3 310 340 180
3 374 310 180
3 310 351 134
3 374 243 150
3 374 180 319
3 150 107 141
3 141 351 150
3 296 141 130
3 150 351 374
3 319 243 374
3 134 351 289
3 243 383 150
3 354 265 165
3 318 128 265
3 338 100 377
3 233 353 173
3 285 216 142
3 141 289 351
3 61 62 172
3 60 61 154
3 269 177 154
3 172 154 61
3 365 172 62
3 172 269 154
3 62 63 365
3 60 154 208
3 59 329 58
3 329 59 208
3 329 281 58
3 208 177 166
3 177 208 154
3 166 177 308
3 208 166 329
3 59 60 208
3 166 341 329
3 172 365 111
3 269 111 104
3 111 269 172
3 104 111 298
3 269 104 90
3 298 338 274
3 111 365 242
3 384 244 274
3 298 274 104
3 298 111 242
3 104 274 244
3 308 240 166
3 177 90 308
3 308 90 138
3 240 308 301
3 237 301 138
3 244 138 90
3 240 301 300
3 237 342 301
3 123 138 244
3 138 301 308
3 90 104 244
3 240 341 166
3 274 338 190
3 177 269 90
3 199 338 298
3 342 300 301
3 57 214 56
3 214 57 281
3 148 56 214
3 214 273 132
3 341 281 329
3 341 273 281
3 281 273 214
3 57 58 281
3 148 214 132
3 55 389 3
3 389 55 148
3 3 389 54
3 309 54 389
3 309 148 132
3 54 309 53
3 309 389 148
3 55 56 148
3 132 220 309
3 273 224 223
3 273 341 224
3 223 224 247
3 223 220 132
3 247 300 302
3 300 247 224
3 302 300 342
3 223 247 268
3 240 224 341
3 96 247 302
3 53 220 52
3 53 309 220
3 52 220 204
3 204 268 385
3 96 268 247
3 204 51 52
3 385 51 204
3 385 268 96
3 268 204 220
3 220 223 268
3 302 355 96
3 132 273 223
3 240 300 224
3 342 118 302
3 79 384 336
3 190 384 274
3 336 384 190
3 384 79 123
3 99 336 221
3 311 336 190
3 221 336 311
3 336 99 79
3 338 377 190
3 79 99 253
3 84 237 196
3 123 237 138
3 196 237 123
3 84 118 342
3 196 253 325
3 196 123 79
3 325 253 189
3 196 325 84
3 79 253 196
3 81 84 325
3 99 211 253
3 384 123 244
3 221 289 86
3 221 311 134
3 86 289 296
3 86 211 99
3 198 296 209
3 296 198 86
3 296 289 141
3 198 209 175
3 296 130 209
3 86 198 211
3 189 92 325
3 253 211 189
3 189 211 174
3 92 189 379
3 174 175 106
3 174 211 198
3 92 379 88
3 106 379 174
3 349 106 290
3 174 379 189
3 198 175 174
3 349 379 106
3 209 153 175
3 221 86 99
3 134 289 221
3 81 325 92
3 164 355 267
3 96 355 287
3 267 355 118
3 355 164 287
3 266 267 213
3 81 267 118
3 213 267 81
3 267 266 164
3 118 84 81
3 135 164 362
3 50 385 194
3 385 96 287
3 194 385 287
3 385 50 51
3 194 135 49
3 194 287 164
3 49 135 48
3 194 49 50
3 164 135 194
3 164 266 362
3 302 118 355
3 213 88 372
3 213 81 92
3 372 88 248
3 236 266 372
3 307 367 361
3 248 361 372
3 349 248 88
3 248 239 361
3 92 88 213
3 372 361 236
3 293 48 135
3 293 362 236
3 48 293 47
3 293 135 362
3 367 231 293
3 367 236 361
3 47 231 46
3 47 293 231
3 367 251 231
3 293 236 367
3 266 236 362
3 284 248 349
3 372 266 213
3 379 349 88
3 106 175 359
3 237 84 342
3 377 311 190
3 113 170 235
3 218 233 173
3 218 12 13
3 206 233 218
3 74 396 233
3 13 14 299
3 203 206 299
3 13 299 218
3 206 218 299
3 219 277 72
3 396 74 277
3 72 277 74
3 315 235 219
3 352 72 74
3 203 352 206
3 72 352 369
3 352 74 206
3 233 206 74
3 326 219 72
3 299 14 339
3 219 76 277
3 339 144 203
3 339 203 299
3 15 339 14
3 139 339 15
3 139 16 282
3 16 139 15
3 282 16 17
3 144 339 139
3 276 139 282
3 382 369 393
3 369 352 393
3 144 393 203
3 184 393 144
3 391 184 375
3 276 184 144
3 322 369 382
3 391 382 184
3 375 184 276
3 184 382 393
3 144 139 276
3 326 72 369
3 348 391 179
3 393 352 203
3 348 382 391
3 136 191 113
3 191 170 113
3 235 315 113
3 136 113 315
3 136 334 200
3 315 334 136
3 334 315 326
3 191 136 176
3 219 326 315
3 176 136 200
3 107 383 87
3 107 150 383
3 87 383 176
3 398 107 87
3 101 171 87
3 101 176 200
3 343 171 101
3 101 87 176
3 383 191 176
3 171 398 87
3 101 200 205
3 383 243 191
3 334 322 270
3 322 334 326
3 270 322 230
3 270 205 200
3 291 230 333
3 348 230 322
3 348 333 230
3 270 230 255
3 326 369 322
3 255 230 291
3 186 343 202
3 343 101 205
3 202 343 205
3 171 343 395
3 255 314 202
3 314 255 291
3 202 381 186
3 381 202 314
3 314 229 381
3 255 202 205
3 205 270 255
3 303 186 381
3 291 328 314
3 200 334 270
3 382 348 322
3 186 395 343
3 140 276 282
3 141 107 130
3 17 18 370
3 370 18 264
3 370 140 282
3 254 297 394
3 264 394 370
3 19 264 18
3 264 254 394
3 370 394 140
3 364 375 357
3 375 276 140
3 357 375 140
3 364 179 391
3 357 297 156
3 357 140 394
3 275 156 297
3 357 156 364
3 394 297 357
3 305 364 156
3 257 264 19
3 282 17 370
3 392 257 399
3 20 257 19
3 399 257 20
3 257 392 254
3 399 1 21
3 1 399 20
3 399 21 392
3 392 21 22
3 275 386 156
3 275 254 373
3 386 275 146
3 275 297 254
3 373 22 23
3 373 254 392
3 146 23 24
3 23 146 373
3 373 146 275
3 392 22 373
3 386 146 115
3 257 254 264
3 305 156 386
3 261 333 225
3 333 348 179
3 225 333 179
3 261 328 291
3 225 305 280
3 225 179 364
3 151 234 280
3 225 280 261
3 305 225 364
3 261 280 234
3 124 229 80
3 229 314 328
3 80 229 328
3 381 229 321
3 250 80 77
3 234 80 328
3 234 77 80
3 80 250 124
3 328 261 234
3 246 124 250
3 280 305 82
3 291 333 261
3 151 82 288
3 305 386 82
3 288 82 115
3 151 77 234
3 115 25 288
3 25 115 24
3 288 25 26
3 115 82 386
3 151 288 371
3 97 260 250
3 97 77 371
3 260 97 28
3 97 250 77
3 371 26 27
3 371 77 151
3 28 97 27
3 27 97 371
3 288 26 371
3 260 28 29
3 151 280 82
3 24 115 146
3 124 321 229
3 391 375 364
3 260 246 250
3 212 153 209
3 212 130 398
3 153 212 331
3 153 359 175
3 368 331 212
3 398 171 368
3 271 320 331
3 368 212 398
3 130 107 398
3 153 331 320
3 201 290 155
3 290 106 359
3 155 290 359
3 290 201 284
3 114 155 112
3 320 155 359
3 320 112 155
3 155 114 201
3 359 153 320
3 103 201 114
3 331 368 126
3 290 284 349
3 350 126 147
3 271 331 126
3 147 126 395
3 126 350 271
3 147 303 313
3 147 395 186
3 313 303 358
3 147 313 350
3 303 147 186
3 350 313 316
3 93 112 121
3 112 320 271
3 121 112 271
3 114 93 210
3 121 316 332
3 121 271 350
3 226 332 390
3 226 93 332
3 316 95 332
3 332 93 121
3 350 316 121
3 93 114 112
3 313 323 316
3 126 368 395
3 395 368 171
3 226 210 93
3 239 307 361
3 307 251 367
3 239 284 160
3 307 239 312
3 75 312 217
3 160 312 239
3 217 312 160
3 307 312 245
3 201 160 284
3 245 312 75
3 46 251 45
3 46 231 251
3 45 251 122
3 75 122 245
3 44 122 108
3 122 44 45
3 245 122 251
3 251 307 245
3 122 75 108
3 248 284 239
3 217 103 73
3 103 217 160
3 73 103 210
3 149 217 73
3 363 380 73
3 363 210 226
3 185 380 232
3 363 73 210
3 201 103 160
3 149 73 380
3 43 108 152
3 75 149 378
3 108 75 378
3 108 43 44
3 378 185 152
3 378 149 380
3 42 43 152
3 256 42 152
3 152 185 256
3 152 108 378
3 380 185 378
3 232 380 363
3 149 75 217
3 114 210 103
3 363 226 127
3 212 209 130
3 323 313 358
3 316 323 95
3 358 321 192
3 323 358 187
3 323 187 178
3 187 358 192
3 125 178 187
3 168 178 125
3 124 192 321
3 323 178 95
3 102 390 163
3 390 332 95
3 163 390 95
3 390 102 127
3 163 168 292
3 163 95 178
3 292 168 227
3 163 292 102
3 178 168 163
3 131 102 292
3 187 192 143
3 127 226 390
3 98 143 161
3 143 125 187
3 161 143 246
3 143 98 125
3 161 29 30
3 161 246 260
3 161 30 98
3 124 246 192
3 98 30 31
3 227 294 292
3 168 324 227
3 294 227 33
3 168 125 324
3 324 31 32
3 324 125 98
3 33 227 32
3 32 227 324
3 98 31 324
3 294 33 34
3 143 192 246
3 29 161 260
3 131 292 294
3 169 232 279
3 232 363 127
3 279 232 127
3 169 256 185
3 279 356 259
3 356 279 127
3 259 356 94
3 169 279 283
3 102 356 127
3 283 279 259
3 256 228 41
3 256 169 228
3 41 228 40
3 256 41 42
3 228 278 40
3 278 228 283
3 241 278 283
3 40 278 39
3 169 283 228
3 283 259 241
3 169 185 232
3 94 249 89
3 249 94 131
3 94 89 241
3 94 241 259
3 249 34 35
3 249 131 294
3 249 35 89
3 294 34 249
3 89 35 36
3 278 158 39
3 278 241 158
3 241 89 158
3 39 158 38
3 37 38 158
3 2 38 37
3 37 158 36
3 89 36 158
3 356 131 94
3 102 131 356
3 358 303 321
3 321 303 381
3 218 173 12
POINT_DATA 400
SCALARS P float 1
LOOKUP_TABLE default
463674668.546888
2517361569.395167
7100151135.785394
3157965607.569374
564644879.653713
633915806.047046
716413788.010073
802247139.200534
893247046.167425
988683489.278911
1089198039.103327
1194682800.670510
1304746134.052903
1420047284.629686
1540370609.133608
1665465437.792864
1795010626.928138
1929938894.663751
2069326399.988232
2213644767.826963
2363627729.633315
2711363388.165897
2911620816.521236
3119867375.447325
3335435302.195819
3558027133.164818
3787835291.022914
4024505383.485192
4268573373.824766
4519803671.337070
4778397315.950869
5044388508.888258
5317322858.242991
5597845987.794821
5885046388.969305
6179773956.939395
6480468341.308808
6792638056.139630
6847657921.900422
6589372043.658009
6338884131.539940
6092921085.117424
5852004384.929454
5614724479.117701
5383987123.465891
5156425977.604568
4934950799.542418
4718117993.012171
4505555949.967520
4298802354.622146
4096242377.553476
3898470524.760470
3706028327.497823
3517667953.493286
3336132333.007037
2947423397.268342
2744542521.854764
2550130123.539087
2361983999.669300
2181373418.205935
2007639881.672823
1841147713.890700
1681884232.836609
1529910498.649350
1385173162.939901
1247801470.289300
1117537549.194941
994772688.194376
878784918.104503
770257390.703890
667398163.218654
580107987.590209
2002588476.433799
4739730768.281275
1778194236.749329
4926614635.163655
1883829463.467241
3663829363.619586
1151444316.334186
2668835233.933208
3599669465.774686
3343930122.841802
3213777935.910775
769735335.026098
3073557241.762558
698866140.358193
2783324984.038977
2807560955.964321
3678951096.581026
6167444707.997131
2329076423.959502
2117994915.148530
3398200732.427891
4328277014.616096
5790418178.093289
4516035177.009392
3463537021.406498
3961424684.259360
4714032647.058671
2723178712.927196
1859775579.903748
2869149324.010965
5113875923.457196
4437021957.889756
2149325781.240088
1545566783.416717
3532373099.622651
2737093230.753695
5261571348.283223
1393916536.190786
908020564.159992
1931882480.881044
4004341781.804005
2252955912.156304
4226204002.581861
3278217732.841043
1026776326.174519
898844107.787647
3288703977.670540
1786222770.049253
802139804.342591
4095834304.043835
5066006906.081197
2616667959.674640
3833815781.848229
4648751193.342229
3559150040.134357
5073406853.708113
1471233351.875078
1740672428.511248
2925045383.403422
5473665159.523958
3080055472.178034
1170544325.133207
2343290498.129299
4176660148.682948
2458409794.081261
1465841577.865135
2567093806.625900
1880874650.123258
2251341909.186625
2660535146.431151
1422465452.442361
4391019490.278541
1970516154.298376
1359948876.895673
3072459252.308115
3633164467.541599
2972861618.868056
4924831324.653205
2479970029.338665
3436988545.642022
5522353536.075214
3402365096.037358
2054272966.977134
3910829062.360713
2752348723.064867
1055368088.824582
6497650763.141291
1049013745.320254
4335307153.514000
4455764920.559472
610056279.004114
4845693907.926843
3823915286.371857
1879961436.040537
2469174294.013611
1700996574.347160
4913240468.359213
5605755735.232333
2170747863.135967
3067159081.842268
1885883164.457668
1375611982.361729
3252193892.114370
3324897722.868172
2625583711.964762
2281350762.738235
4582566385.002944
2663557304.797285
1978716270.021162
1324734758.169805
1187563255.935642
970066553.539398
2204040773.647095
5388918627.202804
3407684920.950000
4325864782.980684
1282363445.996194
3186513068.686954
2245143566.637819
2400454911.214393
4076163665.860296
1401393777.215751
3983671461.709068
1127192539.579787
2867135671.694589
1975390072.194042
3048689921.850808
1814350713.019822
2676659751.099597
4122913042.607199
3185120889.144245
1834551577.716967
3617770966.783982
2918448704.792319
1700086489.362132
1614433280.251874
2230177036.148446
3121836777.626167
4546580994.484038
2982014764.313725
3197074533.415241
3617433895.659178
2788456937.135658
1086205840.638895
1254772452.733194
4646876842.498557
1495758922.875734
2055417646.913133
3389020040.919917
2530543502.049790
1220174560.904690
3153425789.645649
2925421039.965791
2888492255.683327
4683530061.217360
5251372691.879635
5993965669.356644
3535403176.350315
2736479266.011694
4617952880.229321
5241232597.962859
1569172783.984863
3374670280.636357
2068767788.380854
4158209299.792827
2814851401.371286
1361083852.719219
4272059541.866364
2715954443.299354
6097712900.410779
1769482370.173736
2316498607.469171
2377952191.740419
4786181652.532073
4140617928.497973
3184317258.146456
3966022842.268154
5838740150.121256
3898192508.078833
4796541889.158405
821806557.062838
2921998088.804886
2577606967.847885
2960095407.989551
5741575110.920935
2432623768.871172
1050541476.558614
5729010778.044497
4204802036.097619
3095684954.735967
947875248.677541
1586616394.674556
2299101272.789885
1670096129.631611
3844554263.627604
3573203896.226166
3412500472.132494
2102380937.911834
2695391273.656076
3780570144.639597
1324053755.675444
2872820821.695565
2197175147.897559
2812949895.425711
2113109112.058960
1844637530.477342
6263713403.982050
5458536892.116408
3157523451.582865
2600488273.350742
2015440325.491245
5870013447.385807
4038282243.090868
1262712987.216519
1576459791.692852
3714099082.487615
3496783713.734510
2590323988.918221
3823111871.962634
3028687695.111557
5184741606.796117
4380999527.748080
5533252300.398823
1571733314.678653
2851067583.746181
2601290794.773055
1977950778.645211
1619937446.689904
2970965051.271324
2764782142.954662
3238802034.852041
3703112972.652019
1153523774.978300
2938233174.548072
1780267265.490859
4505233751.525187
2517793603.204415
3270876240.723962
2160305829.410451
2294236806.010855
4575282181.928457
3940401687.093997
3244883921.012376
2259262584.295119
4183784801.361828
1657445234.219919
1538728607.817442
2076767954.714106
3695447824.203887
3769173118.846152
2448667264.891366
4258784905.742720
4979247787.122847
3128322419.520037
2238763314.864532
1260405423.970675
3310296053.010816
2412983943.233750
1505298476.521357
3481318187.098400
4432872652.446338
2833622317.527543
2467196525.488375
1109213609.844151
2477989592.538745
710487640.336468
2024570092.574868
1748084007.368829
1950972582.167557
2666390942.215139
3022061284.892354
3129032093.734919
1697101932.067774
1614234835.345266
1215691278.402802
1425397780.175678
2558324766.337206
3744511035.389361
3862819672.958955
2403481890.655807
1919916006.706098
1443766472.398848
1767201912.267679
3510023778.053914
5400265689.049072
2489881902.891836
4010214785.192813
3611855068.306485
1904202513.868743
4192268498.785735
4071117050.489778
4895831029.287061
2640016116.313540
1725082003.305808
929841839.935771
4430130790.082617
3271318800.820226
2158567428.270981
2149157280.598401
3725670235.603316
3906220912.512095
2865050933.674841
2225448561.978139
2359778858.176638
1508044960.104572
2071016898.421857
5203257118.269604
3461329601.733628
5076330922.199843
3471467125.132246
2311256671.139380
2561408803.736607
2426920031.476249
3754443932.693367
3003323956.482082
999390809.353511
854193878.844517
3136939287.872577
4784770869.901056
2439642203.158100
2688653262.953645
2063807701.725445
2384198067.635237
3341870787.792192
1639676543.430934
1286084628.588576
2998187823.407603
2542777656.972523
