# vtk DataFile Version 2.0
patchtest_tri3_mix
ASCII
DATASET POLYDATA
POINTS 92 float
0.000000 0.000000 0.000000
1.000000 0.000000 0.000000
1.000000 1.000000 0.000000
0.000000 1.000000 0.000000
0.125000 0.000000 0.000000
0.250000 0.000000 0.000000
0.375000 0.000000 0.000000
0.500000 0.000000 0.000000
0.625000 0.000000 0.000000
0.750000 0.000000 0.000000
0.875000 0.000000 0.000000
1.000000 0.125000 0.000000
1.000000 0.250000 0.000000
1.000000 0.375000 0.000000
1.000000 0.500000 0.000000
1.000000 0.625000 0.000000
1.000000 0.750000 0.000000
1.000000 0.875000 0.000000
0.875000 1.000000 0.000000
0.750000 1.000000 0.000000
0.625000 1.000000 0.000000
0.500000 1.000000 0.000000
0.375000 1.000000 0.000000
0.250000 1.000000 0.000000
0.125000 1.000000 0.000000
0.000000 0.875000 0.000000
0.000000 0.750000 0.000000
0.000000 0.625000 0.000000
0.000000 0.500000 0.000000
0.000000 0.375000 0.000000
0.000000 0.250000 0.000000
0.000000 0.125000 0.000000
0.888110 0.785496 0.000000
0.773807 0.441008 0.000000
0.554731 0.669243 0.000000
0.776739 0.663596 0.000000
0.887122 0.558671 0.000000
0.554173 0.784668 0.000000
0.224726 0.217353 0.000000
0.273478 0.105323 0.000000
0.901576 0.106298 0.000000
0.668103 0.109900 0.000000
0.331588 0.546183 0.000000
0.664424 0.552324 0.000000
0.444382 0.743280 0.000000
0.551107 0.435410 0.000000
0.674148 0.886904 0.000000
0.887893 0.673299 0.000000
0.664806 0.775073 0.000000
0.894812 0.328452 0.000000
0.665513 0.663389 0.000000
0.442858 0.874240 0.000000
0.886210 0.443117 0.000000
0.440995 0.482717 0.000000
0.559896 0.892734 0.000000
0.871832 0.216360 0.000000
0.333626 0.667910 0.000000
0.789072 0.109657 0.000000
0.222916 0.787699 0.000000
0.103474 0.890691 0.000000
0.670248 0.329292 0.000000
0.221253 0.578778 0.000000
0.217123 0.340426 0.000000
0.109170 0.535588 0.000000
0.607909 0.217502 0.000000
0.553373 0.551386 0.000000
0.107844 0.404815 0.000000
0.334873 0.784614 0.000000
0.109352 0.267781 0.000000
0.471397 0.227753 0.000000
0.328523 0.423449 0.000000
0.540324 0.113419 0.000000
0.553365 0.325247 0.000000
0.218391 0.462594 0.000000
0.222703 0.686474 0.000000
0.110330 0.660074 0.000000
0.775961 0.552032 0.000000
0.776118 0.775306 0.000000
0.330435 0.303138 0.000000
0.740830 0.219564 0.000000
0.212550 0.891603 0.000000
0.786460 0.330328 0.000000
0.437682 0.353369 0.000000
0.662055 0.440848 0.000000
0.326362 0.894262 0.000000
0.130644 0.127477 0.000000
0.110541 0.777967 0.000000
0.786019 0.887767 0.000000
0.895780 0.895506 0.000000
0.415820 0.105311 0.000000
0.352390 0.200501 0.000000
0.443133 0.612933 0.000000
POLYGONS 150 600
3 31 0 4
3 31 85 30
3 85 31 4
3 38 68 85
3 30 85 68
3 29 66 28
3 66 29 68
3 63 28 66
3 62 73 66
3 38 62 68
3 73 62 70
3 62 66 68
3 29 30 68
3 73 63 66
3 85 4 5
3 39 89 90
3 6 39 5
3 39 90 38
3 39 38 85
3 6 7 89
3 90 89 69
3 6 89 39
3 71 69 89
3 78 70 62
3 38 90 78
3 70 78 82
3 78 62 38
3 53 82 45
3 69 82 78
3 65 91 53
3 82 53 70
3 90 69 78
3 73 70 42
3 82 69 72
3 39 85 5
3 53 42 70
3 26 27 75
3 63 61 75
3 63 73 61
3 26 75 86
3 63 75 27
3 27 28 63
3 74 86 75
3 25 59 3
3 59 25 86
3 3 59 24
3 80 24 59
3 58 80 86
3 24 80 23
3 80 59 86
3 25 26 86
3 74 75 61
3 61 56 74
3 56 61 42
3 56 42 91
3 74 56 67
3 56 44 67
3 44 56 91
3 37 51 44
3 67 44 51
3 42 53 91
3 74 67 58
3 84 23 80
3 58 67 84
3 23 84 22
3 84 80 58
3 22 51 21
3 51 22 84
3 54 21 51
3 67 51 84
3 34 44 91
3 74 58 86
3 73 42 61
3 71 89 7
3 64 72 69
3 64 71 41
3 8 9 41
3 64 41 79
3 8 41 71
3 71 7 8
3 57 79 41
3 45 72 83
3 45 82 72
3 83 72 60
3 65 45 83
3 33 60 81
3 60 72 64
3 79 81 60
3 60 33 83
3 64 79 60
3 43 83 33
3 57 41 9
3 65 53 45
3 55 57 40
3 10 57 9
3 40 57 10
3 55 81 79
3 40 1 11
3 1 40 10
3 40 11 55
3 55 11 12
3 81 49 52
3 81 55 49
3 52 49 13
3 81 52 33
3 12 13 49
3 13 14 52
3 55 12 49
3 33 52 76
3 55 79 57
3 52 14 36
3 34 37 44
3 34 65 50
3 43 76 50
3 43 65 83
3 48 50 77
3 43 50 65
3 33 76 43
3 34 50 48
3 54 46 20
3 46 54 37
3 54 20 21
3 37 54 51
3 46 87 19
3 48 77 46
3 46 19 20
3 48 46 37
3 37 34 48
3 35 50 76
3 91 65 34
3 47 77 35
3 35 77 50
3 36 35 76
3 47 35 36
3 47 15 16
3 15 47 36
3 77 47 32
3 36 14 15
3 32 47 16
3 18 87 88
3 32 87 77
3 88 87 32
3 87 18 19
3 88 17 2
3 17 88 32
3 88 2 18
3 32 16 17
3 77 87 46
3 76 52 36
3 71 64 69
POINT_DATA 92
SCALARS P float 1
LOOKUP_TABLE default
3002.163922
-2.715949
-6.160699
-3026.280685
2623.059958
2253.883034
1872.018421
1495.828748
1119.034119
740.646227
365.897848
10.882239
6.686345
5.546496
0.876641
-5.162450
-5.078359
-14.133924
-397.804162
-762.781383
-1148.707808
-1520.319074
-1897.587659
-2287.910983
-2656.912842
-2143.836757
-1463.042921
-705.395425
34.042960
773.321391
1522.930064
2237.988163
-194.699971
80.877269
-445.977743
-217.790020
-38.627601
-767.118929
1316.777021
1708.606433
229.514061
776.774481
-185.363950
-104.341676
-803.210692
174.215347
-739.888372
-109.728043
-551.891631
106.693515
-322.451061
-1236.106344
38.561391
60.530982
-1013.431315
213.849555
-666.954443
502.150610
-1340.775286
-2102.859122
337.309435
-362.136345
752.145256
-203.251006
663.762951
-136.781870
494.236913
-1140.710570
1222.938421
860.546304
306.137386
1063.559474
467.285015
183.668479
-848.892056
-862.602810
-68.681580
-369.607044
784.730552
433.447015
-1802.714928
220.458025
495.132527
121.059045
-1569.316285
1926.644407
-1493.347470
-491.665683
-217.117891
1379.008296
1161.312491
-374.034373
