# vtk DataFile Version 2.0
patchtest_tri3_mix
ASCII
DATASET POLYDATA
POINTS 1058 float
0.000000 -6.000000 0.000000
48.000000 -6.000000 0.000000
0.750000 -6.000000 0.000000
1.500000 -6.000000 0.000000
2.250000 -6.000000 0.000000
3.000000 -6.000000 0.000000
3.750000 -6.000000 0.000000
4.500000 -6.000000 0.000000
5.250000 -6.000000 0.000000
6.000000 -6.000000 0.000000
6.750000 -6.000000 0.000000
7.500000 -6.000000 0.000000
8.250000 -6.000000 0.000000
9.000000 -6.000000 0.000000
9.750000 -6.000000 0.000000
10.500000 -6.000000 0.000000
11.250000 -6.000000 0.000000
12.000000 -6.000000 0.000000
12.750000 -6.000000 0.000000
13.500000 -6.000000 0.000000
14.250000 -6.000000 0.000000
15.000000 -6.000000 0.000000
15.750000 -6.000000 0.000000
16.500000 -6.000000 0.000000
17.250000 -6.000000 0.000000
18.000000 -6.000000 0.000000
18.750000 -6.000000 0.000000
19.500000 -6.000000 0.000000
20.250000 -6.000000 0.000000
21.000000 -6.000000 0.000000
21.750000 -6.000000 0.000000
22.500000 -6.000000 0.000000
23.250000 -6.000000 0.000000
24.000000 -6.000000 0.000000
24.750000 -6.000000 0.000000
25.500000 -6.000000 0.000000
26.250000 -6.000000 0.000000
27.000000 -6.000000 0.000000
27.750000 -6.000000 0.000000
28.500000 -6.000000 0.000000
29.250000 -6.000000 0.000000
30.000000 -6.000000 0.000000
30.750000 -6.000000 0.000000
31.500000 -6.000000 0.000000
32.250000 -6.000000 0.000000
33.000000 -6.000000 0.000000
33.750000 -6.000000 0.000000
34.500000 -6.000000 0.000000
35.250000 -6.000000 0.000000
36.000000 -6.000000 0.000000
36.750000 -6.000000 0.000000
37.500000 -6.000000 0.000000
38.250000 -6.000000 0.000000
39.000000 -6.000000 0.000000
39.750000 -6.000000 0.000000
40.500000 -6.000000 0.000000
41.250000 -6.000000 0.000000
42.000000 -6.000000 0.000000
42.750000 -6.000000 0.000000
43.500000 -6.000000 0.000000
44.250000 -6.000000 0.000000
45.000000 -6.000000 0.000000
45.750000 -6.000000 0.000000
46.500000 -6.000000 0.000000
47.250000 -6.000000 0.000000
48.000000 6.000000 0.000000
48.000000 -5.250000 0.000000
48.000000 -4.500000 0.000000
48.000000 -3.750000 0.000000
48.000000 -3.000000 0.000000
48.000000 -2.250000 0.000000
48.000000 -1.500000 0.000000
48.000000 -0.750000 0.000000
48.000000 -0.000000 0.000000
48.000000 0.750000 0.000000
48.000000 1.500000 0.000000
48.000000 2.250000 0.000000
48.000000 3.000000 0.000000
48.000000 3.750000 0.000000
48.000000 4.500000 0.000000
48.000000 5.250000 0.000000
0.000000 6.000000 0.000000
47.250000 6.000000 0.000000
46.500000 6.000000 0.000000
45.750000 6.000000 0.000000
45.000000 6.000000 0.000000
44.250000 6.000000 0.000000
43.500000 6.000000 0.000000
42.750000 6.000000 0.000000
42.000000 6.000000 0.000000
41.250000 6.000000 0.000000
40.500000 6.000000 0.000000
39.750000 6.000000 0.000000
39.000000 6.000000 0.000000
38.250000 6.000000 0.000000
37.500000 6.000000 0.000000
36.750000 6.000000 0.000000
36.000000 6.000000 0.000000
35.250000 6.000000 0.000000
34.500000 6.000000 0.000000
33.750000 6.000000 0.000000
33.000000 6.000000 0.000000
32.250000 6.000000 0.000000
31.500000 6.000000 0.000000
30.750000 6.000000 0.000000
30.000000 6.000000 0.000000
29.250000 6.000000 0.000000
28.500000 6.000000 0.000000
27.750000 6.000000 0.000000
27.000000 6.000000 0.000000
26.250000 6.000000 0.000000
25.500000 6.000000 0.000000
24.750000 6.000000 0.000000
24.000000 6.000000 0.000000
23.250000 6.000000 0.000000
22.500000 6.000000 0.000000
21.750000 6.000000 0.000000
21.000000 6.000000 0.000000
20.250000 6.000000 0.000000
19.500000 6.000000 0.000000
18.750000 6.000000 0.000000
18.000000 6.000000 0.000000
17.250000 6.000000 0.000000
16.500000 6.000000 0.000000
15.750000 6.000000 0.000000
15.000000 6.000000 0.000000
14.250000 6.000000 0.000000
13.500000 6.000000 0.000000
12.750000 6.000000 0.000000
12.000000 6.000000 0.000000
11.250000 6.000000 0.000000
10.500000 6.000000 0.000000
9.750000 6.000000 0.000000
9.000000 6.000000 0.000000
8.250000 6.000000 0.000000
7.500000 6.000000 0.000000
6.750000 6.000000 0.000000
6.000000 6.000000 0.000000
5.250000 6.000000 0.000000
4.500000 6.000000 0.000000
3.750000 6.000000 0.000000
3.000000 6.000000 0.000000
2.250000 6.000000 0.000000
1.500000 6.000000 0.000000
0.750000 6.000000 0.000000
0.000000 5.250000 0.000000
0.000000 4.500000 0.000000
0.000000 3.750000 0.000000
0.000000 3.000000 0.000000
0.000000 2.250000 0.000000
0.000000 1.500000 0.000000
0.000000 0.750000 0.000000
0.000000 0.000000 0.000000
0.000000 -0.750000 0.000000
0.000000 -1.500000 0.000000
0.000000 -2.250000 0.000000
0.000000 -3.000000 0.000000
0.000000 -3.750000 0.000000
0.000000 -4.500000 0.000000
0.000000 -5.250000 0.000000
47.240434 5.173548 0.000000
30.364586 -0.785507 0.000000
47.225162 3.466240 0.000000
14.592070 -4.496473 0.000000
33.494550 2.895245 0.000000
33.336842 -0.224610 0.000000
32.119469 -1.378193 0.000000
4.190018 0.687004 0.000000
28.871749 3.718069 0.000000
13.576027 -3.042456 0.000000
29.290547 2.184900 0.000000
27.476249 -2.367200 0.000000
1.553524 2.429092 0.000000
35.606978 -1.355635 0.000000
30.818240 -4.481006 0.000000
38.980340 4.457130 0.000000
44.250275 -2.791483 0.000000
13.493695 5.225687 0.000000
24.299858 3.847947 0.000000
3.756860 -1.808501 0.000000
3.117478 -3.107870 0.000000
13.245893 -2.299424 0.000000
27.708476 -4.578455 0.000000
10.035343 -0.043943 0.000000
13.191771 -3.714520 0.000000
24.397611 -4.644389 0.000000
36.690132 2.275773 0.000000
36.672202 -3.026306 0.000000
21.328584 -2.854509 0.000000
21.927743 -0.419728 0.000000
16.816114 -1.112828 0.000000
25.383254 -5.187108 0.000000
22.097942 -3.635921 0.000000
42.783734 4.424466 0.000000
18.190532 -4.481710 0.000000
12.695910 -2.899924 0.000000
33.519287 4.452607 0.000000
42.872329 -1.143280 0.000000
6.004377 4.438435 0.000000
29.064541 -2.648409 0.000000
32.363610 -4.463539 0.000000
39.865265 -2.763548 0.000000
15.089394 -5.227037 0.000000
26.730543 0.412438 0.000000
45.733827 -2.798676 0.000000
3.172335 0.304630 0.000000
17.522310 -3.740416 0.000000
6.981353 -0.503258 0.000000
43.550034 -1.123628 0.000000
36.589001 -0.876314 0.000000
47.236120 1.668966 0.000000
6.510417 3.763271 0.000000
24.016071 3.214839 0.000000
28.254306 -0.324210 0.000000
4.136025 -1.114731 0.000000
14.374777 2.189858 0.000000
4.796153 2.172631 0.000000
43.511379 5.209111 0.000000
41.222506 1.342469 0.000000
5.218167 -0.703641 0.000000
24.209097 0.583002 0.000000
7.140216 -2.078726 0.000000
29.655699 4.415275 0.000000
28.864483 0.117942 0.000000
22.073623 0.914362 0.000000
21.022750 4.476217 0.000000
8.957179 3.673823 0.000000
40.479555 1.291261 0.000000
0.766168 -0.859644 0.000000
38.964642 3.690677 0.000000
39.320841 -3.444241 0.000000
2.500188 0.654026 0.000000
25.871405 2.645572 0.000000
33.118814 -5.219422 0.000000
42.020386 3.658661 0.000000
37.446204 4.482261 0.000000
31.982203 4.451257 0.000000
5.769527 2.405787 0.000000
25.103413 -1.771903 0.000000
20.077121 4.459508 0.000000
27.280047 -1.280086 0.000000
25.252153 -4.480144 0.000000
29.898796 -1.822492 0.000000
44.269123 2.032972 0.000000
6.556979 -1.310912 0.000000
5.469862 1.709354 0.000000
9.290460 -2.869631 0.000000
14.068076 -0.192436 0.000000
1.564497 -2.980781 0.000000
28.213695 -1.955320 0.000000
11.147588 -1.210273 0.000000
37.887613 -4.129079 0.000000
30.149275 0.997588 0.000000
41.678785 -1.025084 0.000000
43.564773 -3.578841 0.000000
38.954030 -1.488320 0.000000
1.547831 -1.323571 0.000000
27.740806 4.040765 0.000000
22.046957 -5.252675 0.000000
7.255499 1.857221 0.000000
24.789024 -2.862716 0.000000
25.706960 -1.584772 0.000000
2.281261 -5.228873 0.000000
35.559331 3.446288 0.000000
24.595932 -5.271389 0.000000
42.786749 -2.850278 0.000000
16.160701 -1.371046 0.000000
45.719786 3.621422 0.000000
30.617198 -1.547270 0.000000
39.000208 -5.233532 0.000000
9.302054 -4.440427 0.000000
28.498083 -5.239660 0.000000
9.755390 -5.225215 0.000000
40.514158 0.470909 0.000000
19.308117 0.509207 0.000000
33.537733 5.215618 0.000000
7.552841 -2.862206 0.000000
11.514915 0.359435 0.000000
40.537634 -2.258773 0.000000
23.733195 4.482362 0.000000
37.450429 -3.072474 0.000000
46.468745 0.405334 0.000000
0.776002 -4.374945 0.000000
42.806642 -0.310488 0.000000
26.605046 -2.731381 0.000000
19.022801 -4.463073 0.000000
43.542632 0.467607 0.000000
39.124367 -0.404074 0.000000
7.352324 -1.289845 0.000000
37.472301 5.232631 0.000000
18.208290 -2.240367 0.000000
19.730357 -2.146176 0.000000
7.537904 -4.429585 0.000000
36.525782 1.477039 0.000000
19.062277 -2.916844 0.000000
1.494961 4.329832 0.000000
30.266547 2.133899 0.000000
29.143307 -3.187468 0.000000
47.241879 -0.067720 0.000000
34.961674 3.693238 0.000000
11.535949 -5.219387 0.000000
10.402537 4.426690 0.000000
27.409413 -3.466821 0.000000
26.191652 4.646753 0.000000
24.134176 -3.078263 0.000000
7.978856 -3.648339 0.000000
9.811134 0.706382 0.000000
33.782016 -3.596631 0.000000
32.713402 5.214800 0.000000
23.363039 -0.264588 0.000000
33.932759 0.527844 0.000000
31.261315 2.946870 0.000000
42.084022 -4.456019 0.000000
16.174862 1.025981 0.000000
3.683889 5.227207 0.000000
47.231974 2.570255 0.000000
14.619414 0.680651 0.000000
37.205462 0.632036 0.000000
3.991067 -4.438498 0.000000
44.263548 -0.359447 0.000000
18.726543 5.257444 0.000000
28.232808 2.436644 0.000000
46.471904 2.865215 0.000000
35.531313 0.447601 0.000000
20.634782 -4.441655 0.000000
8.230275 5.211920 0.000000
26.268580 -0.459896 0.000000
38.062008 0.081400 0.000000
40.558061 -4.524718 0.000000
22.676617 -1.976951 0.000000
46.477479 2.047598 0.000000
36.593004 -1.475849 0.000000
17.050796 0.571929 0.000000
6.673361 -2.872570 0.000000
12.659468 5.215171 0.000000
1.563322 3.243546 0.000000
37.397631 3.757257 0.000000
14.338787 4.484659 0.000000
27.571708 1.992823 0.000000
44.244428 5.209672 0.000000
16.933438 -5.225023 0.000000
36.307327 -4.652813 0.000000
23.520255 -0.968187 0.000000
26.381437 -3.241909 0.000000
25.950493 3.731599 0.000000
22.854870 -5.192741 0.000000
17.228973 -1.758679 0.000000
0.780436 -1.764068 0.000000
8.938279 2.127669 0.000000
38.906054 0.691700 0.000000
[...]
POINT_DATA 1058
SCALARS P float 1
LOOKUP_TABLE default
1045.487042
0.168112
992.621669
998.526585
970.619782
956.012830
935.718157
923.019032
905.042415
891.904435
875.316651
858.112055
840.797193
824.977094
811.505095
796.736664
782.046158
762.812173
747.413312
733.268247
716.618633
703.499472
689.110219
669.650941
652.211279
636.282919
620.916949
604.441365
589.661435
570.321284
558.713013
541.622409
524.389224
509.378001
496.686113
475.917886
465.129698
445.161612
431.779934
413.150934
397.799220
381.200949
364.768367
348.386920
332.107744
315.890628
299.504206
284.004197
268.386644
252.934529
237.215944
220.946149
204.796102
188.070075
171.889774
155.747622
139.793028
123.788080
107.613676
92.016127
75.858916
60.913598
43.522277
30.617690
10.629737
-7.834463
6.310172
2.935794
5.354092
2.570297
3.170267
1.601060
1.185089
-0.191316
-0.667056
-2.201528
-2.065456
-4.883537
-1.596608
-8.470675
0.299597
-963.398089
-15.153685
-38.424320
-50.888472
-68.277761
-83.439856
-99.659174
-115.560067
-131.816236
-148.037633
-164.022158
-180.183319
-196.608602
-213.089194
-229.385772
-247.427247
-263.878415
-277.907933
-293.025087
-308.463021
-324.563891
-340.286110
-356.472675
-372.435645
-388.815608
-402.863198
-425.419117
-443.594131
-470.581399
-476.623472
-492.607328
-503.762277
-523.031376
-536.675842
-553.905664
-571.508098
-583.304955
-597.932810
-613.037357
-637.845865
-651.896163
-665.470929
-679.171440
-693.742487
-710.817218
-727.573823
-742.238784
-757.169398
-772.217325
-787.007864
-802.548042
-817.203003
-835.119271
-851.676925
-869.176845
-882.501775
-903.574732
-917.561475
-935.115834
-952.380990
-980.070311
-984.417310
-974.047711
-1057.765936
-812.055853
-681.183290
-583.134744
-453.319881
-317.283477
-201.476833
-77.609650
41.817748
161.522381
285.230810
408.628465
531.306663
645.387881
786.857505
879.368918
-9.039635
47.474697
-7.130153
529.031383
-146.839233
11.337309
75.738213
-101.818690
-233.675291
363.254429
-139.976020
168.372679
-382.269969
58.024573
269.029670
-142.603429
36.000161
-604.383884
-300.371044
275.222386
490.354085
275.126933
329.204803
7.700991
444.377692
387.382138
-87.672039
117.172522
261.055209
38.104993
118.450878
399.194617
323.900131
-81.505481
467.437102
355.075481
-226.850397
21.071700
-657.608108
167.606859
242.947391
77.154980
577.846390
-32.121202
21.297882
-50.386172
389.750733
71.315394
17.340680
33.295415
-3.299287
-525.221880
-275.096359
20.192791
167.807270
-251.984602
-322.436816
-76.911689
-31.233093
104.422074
-49.545251
293.336839
-283.297805
-6.934269
-80.536764
-431.642257
-488.765820
-34.353024
118.642258
-112.039763
103.717523
-94.709139
-199.269042
265.301237
-74.026048
-169.052049
-251.122431
-345.322291
141.821457
-439.165645
88.242733
359.912379
114.951815
-25.795287
188.671419
-253.859918
384.830985
23.489975
494.924907
130.153201
155.286717
142.401972
-60.876345
23.668559
55.155961
46.774209
219.665888
-260.304006
457.298058
-260.823961
227.461900
120.568401
804.980562
-153.176958
412.020297
51.253812
153.030443
-27.311619
93.842398
161.738580
598.322425
346.801225
678.031823
-11.821336
-54.360800
-251.453265
399.492806
-46.014103
58.245200
-387.900232
110.427233
-2.051383
697.618846
5.607271
196.495481
451.775163
-6.959125
12.436170
180.853118
-181.391428
228.739915
208.874962
623.371076
-58.008675
292.795488
-678.667817
-130.307851
212.582655
0.157957
-159.568587
643.915615
-581.188003
252.197868
-373.305327
256.382017
503.336179
-95.279183
175.088394
-266.058480
27.184502
-24.691985
-173.098627
90.838220
-107.360455
-773.631517
-4.644158
-77.771232
-22.247111
681.243382
4.773991
-506.553210
-162.285456
-16.397407
-18.990640
425.717417
-698.047746
31.565512
-3.614383
116.474337
173.105698
-10.949695
59.551540
-59.333902
412.586363
-618.974795
-507.350483
-133.413024
-532.043164
-143.074306
-63.776838
550.988887
191.392261
78.919096
249.662465
-276.183250
442.517393
189.427489
270.940056
-282.871231
-22.329034
208.052919
-179.412351
-49.113016
-416.329686
-323.632062
-23.167172
31.348277
-26.749369
54.602908
541.825367
-219.145278
-463.831203
-155.174511
309.754684
22.448866
25.755607
47.476399
-237.380403
31.880686
-116.028381
3.060979
-309.961223
441.574763
-117.558966
520.741428
422.186870
400.864082
76.431128
-211.142840
-26.058204
138.152005
-345.472601
305.771792
64.220819
615.652662
-436.084824
-69.785845
-613.195783
-411.863686
-260.247876
122.048328
-3.057489
-155.626001
8.072252
-499.282015
-33.992993
44.297046
37.991347
-258.359599
-480.738443
231.520129
-89.697680
-358.973524
331.958648
426.144318
479.092217
-156.902520
21.157575
-346.254738
191.514377
584.083698
-238.887099
530.580087
-148.502442
-116.022619
-136.516301
-11.094443
5.236245
-85.930413
324.471363
189.554236
-505.336408
58.622142
556.033833
97.975971
-134.693433
20.925133
85.755014
-597.751297
-301.576818
163.552766
309.189929
-145.447027
-47.672142
-161.919830
-431.012630
-391.392941
21.257203
-30.652997
0.363486
3.619713
146.207161
-381.968376
-156.810398
-98.079266
-21.618002
147.586958
2.532272
215.662370
-140.071130
-337.832381
477.115422
-75.055225
329.690930
-345.080870
-316.934657
-262.969250
326.592574
411.807385
-26.457505
202.567883
-209.067963
45.455743
-67.760855
682.636975
64.233461
37.921333
-461.234080
-280.721909
733.336475
-23.273063
103.789932
566.183702
-558.237145
-282.172420
50.377400
-94.462566
89.052467
-151.480031
56.280855
-29.475437
15.557594
-103.011671
-50.683564
390.201754
-649.916950
-144.335804
56.652602
-9.215119
-186.290156
-641.095253
64.352773
-273.122015
-482.021150
273.357799
-364.144066
-165.870255
161.192422
-42.621019
826.923397
-36.421581
-459.966929
67.413269
299.865824
286.450936
30.911360
-52.358526
-87.203384
-70.606927
-30.019632
-211.150649
127.766479
-326.990621
357.134915
-341.353422
-130.290702
382.714844
114.684194
5.639333
-5.502787
296.596353
86.338131
152.531348
-222.254347
55.502030
271.184176
-152.196665
-45.611908
-634.658915
285.138260
42.807754
-375.036160
599.260094
88.102637
46.200342
812.802486
58.851666
60.295305
-194.453128
-61.619846
-57.737838
60.837609
42.754387
174.984861
-63.293724
88.338895
234.943049
6.347899
447.134677
-491.369684
66.004881
-180.746486
304.278369
276.152549
-420.230706
-20.569380
32.226047
390.879479
349.894561
-93.021554
56.009484
74.221809
-85.860660
158.211736
520.790413
27.985182
-519.735217
-455.612794
-561.031638
226.611962
210.674708
-243.042810
75.302063
83.151020
-15.726648
-296.177201
-19.338480
-172.881146
-425.114668
-358.964250
-524.453788
396.225195
-36.704763
31.941467
78.859199
272.695390
159.567074
176.235635
-34.474185
-404.660964
357.470581
-478.309500
29.231743
-37.683611
264.790453
135.078848
-760.105105
562.817013
-824.571009
374.313601
-79.427256
-566.719942
5.986851
-52.775192
25.274637
181.899592
-40.692797
-317.743916
654.286153
9.183288
197.367597
249.188749
-153.581846
-743.405950
18.615537
7.775151
-43.084201
42.865648
-200.895053
14.468882
-781.819123
492.579217
-9.465857
492.448886
-784.948507
219.344640
24.324833
-298.750144
-8.504002
430.966848
292.814902
53.118279
-218.261894
-130.511973
-216.231367
-5.309766
255.747275
424.382246
-176.723277
306.361592
355.107071
-74.732850
101.285219
-200.214562
219.832053
-208.902921
120.298329
-265.594655
-27.041220
-205.418944
-311.079992
279.190676
-555.049993
-227.851994
709.147322
-168.684026
-303.529374
64.455012
-87.393620
-276.793719
15.075564
148.199082
100.609709
117.267335
251.118502
135.668533
-248.369531
-67.542934
212.276721
-1.430039
-112.634239
123.023580
430.765171
-162.117441
-127.200712
-201.284631
-191.499816
68.645866
120.308332
15.710987
140.138609
51.410708
-18.603012
6.762433
230.306728
191.412431
35.430018
220.446737
-713.288144
-685.472376
-80.714054
-102.269311
-150.961146
66.626774
-15.169976
-111.761965
354.269756
-361.438519
-210.704368
-338.644647
254.155219
16.005285
-129.422494
101.943907
-457.131891
-206.549356
72.177580
-495.640562
-129.673066
-13.369598
379.294997
107.010699
-50.840165
520.822107
-111.617258
-693.622430
36.885264
-47.941996
-254.768475
13.179501
23.508833
28.451078
72.935595
230.326174
191.677611
-132.549342
-83.630978
-288.155278
150.781241
-4.369250
561.251152
-724.818598
47.399501
107.896856
-394.775450
-225.285792
-76.144074
695.552065
-222.700838
148.229474
-380.722428
578.104488
104.964438
262.223924
-615.180221
7.121938
-318.533082
-401.389085
474.944557
355.819389
-4.157324
-310.863365
92.207554
454.299095
70.461197
-43.006593
-122.639448
-104.303872
365.870945
75.933828
402.969658
75.549590
-284.808296
44.836825
557.204774
-267.387192
19.130889
-248.615578
-93.815258
192.443106
108.533196
-61.542298
-31.399022
-438.538665
165.823348
434.124333
106.402328
-494.605669
505.605720
6.643235
-182.451060
-37.063020
-35.284630
90.041221
-12.581786
20.452465
156.775223
203.701633
722.760416
-466.787242
-155.026063
-219.057888
-142.704887
200.572488
180.890586
-150.744617
189.023520
92.794468
-176.110046
-6.737381
-129.813301
107.542377
174.429994
535.442993
-81.577724
280.122085
-345.605445
4.993106
-346.660001
795.786816
-64.304356
213.414208
-371.441259
-722.435468
30.439552
-413.709877
-106.036847
-180.840094
71.273745
-347.789346
-93.948989
-91.764234
39.913990
-474.233428
170.863990
-447.942745
175.257840
-44.492511
227.951956
48.745976
300.337559
-215.306346
-573.101218
4.172770
-814.280625
710.186399
512.553781
-58.299923
-589.028035
101.566541
587.754094
-352.339662
-173.335509
118.896585
96.784869
-668.957281
187.755156
-20.620774
158.182596
545.838336
-478.596921
-15.829116
22.793727
215.116198
170.626779
64.342081
-169.214276
30.013889
-603.044888
126.794982
-39.387142
-187.358602
178.679050
134.781653
100.076405
90.928517
133.426503
11.710582
269.587394
-13.647747
-189.304542
159.919965
-230.831126
1.418647
489.724862
-8.206803
-478.023891
-44.283198
-37.836891
-290.843822
-546.525861
-684.113877
352.401176
-399.967073
-51.321773
-48.684520
-176.625868
753.278126
-44.260052
-36.626064
-27.437915
-53.911659
-67.462504
783.075901
-51.406784
58.810880
640.582149
15.190533
251.359698
-54.862356
-35.246993
-188.051754
306.282438
241.744455
214.458551
-18.731584
-104.517807
737.039521
248.251136
-52.050232
63.430165
212.706639
-597.442141
-237.473748
427.423209
136.031976
310.365076
-167.783003
-259.595076
112.294273
-559.250065
-182.413171
-178.599553
-153.228856
-205.980195
609.253585
-72.723028
-8.021080
175.074887
97.423637
12.554150
-537.685696
-555.470986
77.183586
35.221711
-328.042122
-239.913215
319.668293
-79.628942
74.304643
437.378998
46.411565
-152.519335
-336.590373
-29.659488
309.802561
-24.309506
-121.540419
118.112339
299.768179
220.117492
-0.600519
-106.952174
-148.851639
-31.107691
56.640153
31.227223
-92.789951
-442.954040
-372.386691
-249.566425
-358.097535
-276.433834
-1.021831
-93.030398
358.038259
137.860096
544.842027
-315.876571
-254.918641
370.375654
-538.864838
-248.619166
-96.576018
-319.831381
342.823212
-62.771890
170.880306
5.969629
246.136911
209.626659
1.943156
-384.354171
-541.049780
169.746863
331.823851
392.312724
476.032311
-52.963874
3.305697
-18.725197
7.188315
-121.199968
129.351211
129.097737
87.472349
-431.452300
127.012873
-124.882190
99.240252
-105.819809
659.628500
295.757391
149.460407
-352.175967
-65.435399
134.698782
769.691849
-251.759385
-23.307973
369.540104
-331.053087
312.048018
-61.837936
-59.843060
43.296583
31.991859
42.528588
-383.013794
179.511350
-12.562042
410.298734
-193.117288
48.229512
-453.317708
17.596865
12.182971
-200.637527
-7.450655
90.281098
3.968653
-23.396041
-102.760281
-207.951112
305.582165
-169.602700
-99.034470
-362.445650
-63.367482
-77.395450
658.770036
-119.585940
-84.138268
198.732285
-84.159214
253.361256
-395.488051
74.996613
-89.574475
275.364208
140.718724
334.116680
282.729125
-226.158010
-702.807903
128.222586
67.909242
631.307366
