# vtk DataFile Version 2.0
patchtest_tri3_mix
ASCII
DATASET POLYDATA
POINTS 1058 float
0.000000 -6.000000 0.000000
48.000000 -6.000000 0.000000
0.750000 -6.000000 0.000000
1.500000 -6.000000 0.000000
2.250000 -6.000000 0.000000
3.000000 -6.000000 0.000000
3.750000 -6.000000 0.000000
4.500000 -6.000000 0.000000
5.250000 -6.000000 0.000000
6.000000 -6.000000 0.000000
6.750000 -6.000000 0.000000
7.500000 -6.000000 0.000000
8.250000 -6.000000 0.000000
9.000000 -6.000000 0.000000
9.750000 -6.000000 0.000000
10.500000 -6.000000 0.000000
11.250000 -6.000000 0.000000
12.000000 -6.000000 0.000000
12.750000 -6.000000 0.000000
13.500000 -6.000000 0.000000
14.250000 -6.000000 0.000000
15.000000 -6.000000 0.000000
15.750000 -6.000000 0.000000
16.500000 -6.000000 0.000000
17.250000 -6.000000 0.000000
18.000000 -6.000000 0.000000
18.750000 -6.000000 0.000000
19.500000 -6.000000 0.000000
20.250000 -6.000000 0.000000
21.000000 -6.000000 0.000000
21.750000 -6.000000 0.000000
22.500000 -6.000000 0.000000
23.250000 -6.000000 0.000000
24.000000 -6.000000 0.000000
24.750000 -6.000000 0.000000
25.500000 -6.000000 0.000000
26.250000 -6.000000 0.000000
27.000000 -6.000000 0.000000
27.750000 -6.000000 0.000000
28.500000 -6.000000 0.000000
29.250000 -6.000000 0.000000
30.000000 -6.000000 0.000000
30.750000 -6.000000 0.000000
31.500000 -6.000000 0.000000
32.250000 -6.000000 0.000000
33.000000 -6.000000 0.000000
33.750000 -6.000000 0.000000
34.500000 -6.000000 0.000000
35.250000 -6.000000 0.000000
36.000000 -6.000000 0.000000
36.750000 -6.000000 0.000000
37.500000 -6.000000 0.000000
38.250000 -6.000000 0.000000
39.000000 -6.000000 0.000000
39.750000 -6.000000 0.000000
40.500000 -6.000000 0.000000
41.250000 -6.000000 0.000000
42.000000 -6.000000 0.000000
42.750000 -6.000000 0.000000
43.500000 -6.000000 0.000000
44.250000 -6.000000 0.000000
45.000000 -6.000000 0.000000
45.750000 -6.000000 0.000000
46.500000 -6.000000 0.000000
47.250000 -6.000000 0.000000
48.000000 6.000000 0.000000
48.000000 -5.250000 0.000000
48.000000 -4.500000 0.000000
48.000000 -3.750000 0.000000
48.000000 -3.000000 0.000000
48.000000 -2.250000 0.000000
48.000000 -1.500000 0.000000
48.000000 -0.750000 0.000000
48.000000 -0.000000 0.000000
48.000000 0.750000 0.000000
48.000000 1.500000 0.000000
48.000000 2.250000 0.000000
48.000000 3.000000 0.000000
48.000000 3.750000 0.000000
48.000000 4.500000 0.000000
48.000000 5.250000 0.000000
0.000000 6.000000 0.000000
47.250000 6.000000 0.000000
46.500000 6.000000 0.000000
45.750000 6.000000 0.000000
45.000000 6.000000 0.000000
44.250000 6.000000 0.000000
43.500000 6.000000 0.000000
42.750000 6.000000 0.000000
42.000000 6.000000 0.000000
41.250000 6.000000 0.000000
40.500000 6.000000 0.000000
39.750000 6.000000 0.000000
39.000000 6.000000 0.000000
38.250000 6.000000 0.000000
37.500000 6.000000 0.000000
36.750000 6.000000 0.000000
36.000000 6.000000 0.000000
35.250000 6.000000 0.000000
34.500000 6.000000 0.000000
33.750000 6.000000 0.000000
33.000000 6.000000 0.000000
32.250000 6.000000 0.000000
31.500000 6.000000 0.000000
30.750000 6.000000 0.000000
30.000000 6.000000 0.000000
29.250000 6.000000 0.000000
28.500000 6.000000 0.000000
27.750000 6.000000 0.000000
27.000000 6.000000 0.000000
26.250000 6.000000 0.000000
25.500000 6.000000 0.000000
24.750000 6.000000 0.000000
24.000000 6.000000 0.000000
23.250000 6.000000 0.000000
22.500000 6.000000 0.000000
21.750000 6.000000 0.000000
21.000000 6.000000 0.000000
20.250000 6.000000 0.000000
19.500000 6.000000 0.000000
18.750000 6.000000 0.000000
18.000000 6.000000 0.000000
17.250000 6.000000 0.000000
16.500000 6.000000 0.000000
15.750000 6.000000 0.000000
15.000000 6.000000 0.000000
14.250000 6.000000 0.000000
13.500000 6.000000 0.000000
12.750000 6.000000 0.000000
12.000000 6.000000 0.000000
11.250000 6.000000 0.000000
10.500000 6.000000 0.000000
9.750000 6.000000 0.000000
9.000000 6.000000 0.000000
8.250000 6.000000 0.000000
7.500000 6.000000 0.000000
6.750000 6.000000 0.000000
6.000000 6.000000 0.000000
5.250000 6.000000 0.000000
4.500000 6.000000 0.000000
3.750000 6.000000 0.000000
3.000000 6.000000 0.000000
2.250000 6.000000 0.000000
1.500000 6.000000 0.000000
0.750000 6.000000 0.000000
0.000000 5.250000 0.000000
0.000000 4.500000 0.000000
0.000000 3.750000 0.000000
0.000000 3.000000 0.000000
0.000000 2.250000 0.000000
0.000000 1.500000 0.000000
0.000000 0.750000 0.000000
0.000000 0.000000 0.000000
0.000000 -0.750000 0.000000
0.000000 -1.500000 0.000000
0.000000 -2.250000 0.000000
0.000000 -3.000000 0.000000
0.000000 -3.750000 0.000000
0.000000 -4.500000 0.000000
0.000000 -5.250000 0.000000
47.240434 5.173548 0.000000
30.364586 -0.785507 0.000000
47.225162 3.466240 0.000000
14.592070 -4.496473 0.000000
33.494550 2.895245 0.000000
33.336842 -0.224610 0.000000
32.119469 -1.378193 0.000000
4.190018 0.687004 0.000000
28.871749 3.718069 0.000000
13.576027 -3.042456 0.000000
29.290547 2.184900 0.000000
27.476249 -2.367200 0.000000
1.553524 2.429092 0.000000
35.606978 -1.355635 0.000000
30.818240 -4.481006 0.000000
38.980340 4.457130 0.000000
44.250275 -2.791483 0.000000
13.493695 5.225687 0.000000
24.299858 3.847947 0.000000
3.756860 -1.808501 0.000000
3.117478 -3.107870 0.000000
13.245893 -2.299424 0.000000
27.708476 -4.578455 0.000000
10.035343 -0.043943 0.000000
13.191771 -3.714520 0.000000
24.397611 -4.644389 0.000000
36.690132 2.275773 0.000000
36.672202 -3.026306 0.000000
21.328584 -2.854509 0.000000
21.927743 -0.419728 0.000000
16.816114 -1.112828 0.000000
25.383254 -5.187108 0.000000
22.097942 -3.635921 0.000000
42.783734 4.424466 0.000000
18.190532 -4.481710 0.000000
12.695910 -2.899924 0.000000
33.519287 4.452607 0.000000
42.872329 -1.143280 0.000000
6.004377 4.438435 0.000000
29.064541 -2.648409 0.000000
32.363610 -4.463539 0.000000
39.865265 -2.763548 0.000000
15.089394 -5.227037 0.000000
26.730543 0.412438 0.000000
45.733827 -2.798676 0.000000
3.172335 0.304630 0.000000
17.522310 -3.740416 0.000000
6.981353 -0.503258 0.000000
43.550034 -1.123628 0.000000
36.589001 -0.876314 0.000000
47.236120 1.668966 0.000000
6.510417 3.763271 0.000000
24.016071 3.214839 0.000000
28.254306 -0.324210 0.000000
4.136025 -1.114731 0.000000
14.374777 2.189858 0.000000
4.796153 2.172631 0.000000
43.511379 5.209111 0.000000
41.222506 1.342469 0.000000
5.218167 -0.703641 0.000000
24.209097 0.583002 0.000000
7.140216 -2.078726 0.000000
29.655699 4.415275 0.000000
28.864483 0.117942 0.000000
22.073623 0.914362 0.000000
21.022750 4.476217 0.000000
8.957179 3.673823 0.000000
40.479555 1.291261 0.000000
0.766168 -0.859644 0.000000
38.964642 3.690677 0.000000
39.320841 -3.444241 0.000000
2.500188 0.654026 0.000000
25.871405 2.645572 0.000000
33.118814 -5.219422 0.000000
42.020386 3.658661 0.000000
37.446204 4.482261 0.000000
31.982203 4.451257 0.000000
5.769527 2.405787 0.000000
25.103413 -1.771903 0.000000
20.077121 4.459508 0.000000
27.280047 -1.280086 0.000000
25.252153 -4.480144 0.000000
29.898796 -1.822492 0.000000
44.269123 2.032972 0.000000
6.556979 -1.310912 0.000000
5.469862 1.709354 0.000000
9.290460 -2.869631 0.000000
14.068076 -0.192436 0.000000
1.564497 -2.980781 0.000000
28.213695 -1.955320 0.000000
11.147588 -1.210273 0.000000
37.887613 -4.129079 0.000000
30.149275 0.997588 0.000000
41.678785 -1.025084 0.000000
43.564773 -3.578841 0.000000
38.954030 -1.488320 0.000000
1.547831 -1.323571 0.000000
27.740806 4.040765 0.000000
22.046957 -5.252675 0.000000
7.255499 1.857221 0.000000
24.789024 -2.862716 0.000000
25.706960 -1.584772 0.000000
2.281261 -5.228873 0.000000
35.559331 3.446288 0.000000
24.595932 -5.271389 0.000000
42.786749 -2.850278 0.000000
16.160701 -1.371046 0.000000
45.719786 3.621422 0.000000
30.617198 -1.547270 0.000000
39.000208 -5.233532 0.000000
9.302054 -4.440427 0.000000
28.498083 -5.239660 0.000000
9.755390 -5.225215 0.000000
40.514158 0.470909 0.000000
19.308117 0.509207 0.000000
33.537733 5.215618 0.000000
7.552841 -2.862206 0.000000
11.514915 0.359435 0.000000
40.537634 -2.258773 0.000000
23.733195 4.482362 0.000000
37.450429 -3.072474 0.000000
46.468745 0.405334 0.000000
0.776002 -4.374945 0.000000
42.806642 -0.310488 0.000000
26.605046 -2.731381 0.000000
19.022801 -4.463073 0.000000
43.542632 0.467607 0.000000
39.124367 -0.404074 0.000000
7.352324 -1.289845 0.000000
37.472301 5.232631 0.000000
18.208290 -2.240367 0.000000
19.730357 -2.146176 0.000000
7.537904 -4.429585 0.000000
36.525782 1.477039 0.000000
19.062277 -2.916844 0.000000
1.494961 4.329832 0.000000
30.266547 2.133899 0.000000
29.143307 -3.187468 0.000000
47.241879 -0.067720 0.000000
34.961674 3.693238 0.000000
11.535949 -5.219387 0.000000
10.402537 4.426690 0.000000
27.409413 -3.466821 0.000000
26.191652 4.646753 0.000000
24.134176 -3.078263 0.000000
7.978856 -3.648339 0.000000
9.811134 0.706382 0.000000
33.782016 -3.596631 0.000000
32.713402 5.214800 0.000000
23.363039 -0.264588 0.000000
33.932759 0.527844 0.000000
31.261315 2.946870 0.000000
42.084022 -4.456019 0.000000
16.174862 1.025981 0.000000
3.683889 5.227207 0.000000
47.231974 2.570255 0.000000
14.619414 0.680651 0.000000
37.205462 0.632036 0.000000
3.991067 -4.438498 0.000000
44.263548 -0.359447 0.000000
18.726543 5.257444 0.000000
28.232808 2.436644 0.000000
46.471904 2.865215 0.000000
35.531313 0.447601 0.000000
20.634782 -4.441655 0.000000
8.230275 5.211920 0.000000
26.268580 -0.459896 0.000000
38.062008 0.081400 0.000000
40.558061 -4.524718 0.000000
22.676617 -1.976951 0.000000
46.477479 2.047598 0.000000
36.593004 -1.475849 0.000000
17.050796 0.571929 0.000000
6.673361 -2.872570 0.000000
12.659468 5.215171 0.000000
1.563322 3.243546 0.000000
37.397631 3.757257 0.000000
14.338787 4.484659 0.000000
27.571708 1.992823 0.000000
44.244428 5.209672 0.000000
16.933438 -5.225023 0.000000
36.307327 -4.652813 0.000000
23.520255 -0.968187 0.000000
26.381437 -3.241909 0.000000
25.950493 3.731599 0.000000
22.854870 -5.192741 0.000000
17.228973 -1.758679 0.000000
0.780436 -1.764068 0.000000
8.938279 2.127669 0.000000
38.906054 0.691700 0.000000
[...]
POINT_DATA 1058
SCALARS P float 1
LOOKUP_TABLE default
1338.761421
-221.710983
893.869596
1197.805710
1276.483770
840.539918
1033.434147
957.949843
977.816322
809.990851
1160.389814
799.129308
1194.862761
823.557257
1635.361848
1270.259622
1395.018239
702.068260
846.878095
2102.193776
1437.002127
1262.711873
869.501030
263.403343
871.752701
1709.506136
599.294641
-554.604689
2265.239899
331.177817
2340.557393
6580.311146
1731.973347
4851.255147
6976.241832
4513.336056
5787.289169
4321.729295
6107.591815
3550.687202
3958.365807
2985.594631
2426.105179
1241.539008
1021.001809
-821.165979
185.284277
600.179523
891.660525
1350.504753
1468.734553
2008.597606
668.059916
1577.898337
341.571001
828.587831
382.379860
62.714599
169.747029
63.591012
171.981022
-76.675074
224.416390
-204.839090
236.513117
0.225458
291.018794
-249.140735
148.403416
-112.204450
191.048652
-288.685999
21.548543
-41.916958
-114.198548
20.825105
36.182864
-129.124849
167.445069
-198.279975
56.981600
-1818.003695
-112.211228
48.732237
-330.104844
251.635870
-526.460623
333.059916
-630.442642
267.024676
-607.275404
-453.257247
-545.667846
-1877.791879
-1361.703430
-3037.582058
-1154.408947
-2899.948295
-1855.215599
-2144.053392
-352.357342
-1562.291414
-609.122776
-3981.819640
-2787.119146
-7028.556445
-2639.221469
-12873.569217
-5981.053215
-15056.482537
-11984.207270
-11719.397380
-12812.300547
-11979.452781
-13490.762620
-11901.635750
-14133.990293
-12342.912132
-14005.793536
-11698.883081
-10229.178216
-9815.732975
-7264.721154
-5427.540645
-6199.631005
-4931.437656
-1272.982121
-1715.789991
-1244.522839
-467.240944
-1586.756442
-792.146405
-726.942760
-1532.611326
-504.829866
-1296.518853
-728.189182
-1942.096376
-1403.937499
-3037.470797
-1264.877168
-2711.699231
-1441.686333
-1682.359635
-1254.848173
273.308494
-1803.990584
249.342482
-1366.161196
428.361892
-1111.520326
372.615039
-397.068895
355.786225
99.769248
208.300639
811.094631
112.735619
1287.323557
257.326671
146.154283
2051.138438
-125.304779
3119.665835
42.021970
-6399.454691
-8789.255421
-234.582509
30824.723320
5053.487756
68951.069367
-16497.348192
1648.459975
3532.888113
5721.285440
-4144.549237
-524.804400
2152.097171
36570.627558
1782.579545
403.726557
-3751.934962
22541.406395
-1349.041919
-1866.512856
29485.510588
10355.131485
-6967.369460
10095.158973
18592.394377
-13044.135912
-8503.910668
12851.546423
-2235.911683
4071.225117
1309.341319
553.630514
7782.419480
-2386.976651
-11876.971142
818.183560
-12595.223832
-590.067275
-23878.961878
-558.503854
-3326.151863
-2926.474200
-754.713516
-4420.097461
2863.944052
-236.309608
1961.612007
-50935.281369
20059.705646
-1912.859208
9481.131543
1868.356227
-1378.366566
-4431.720588
909.647542
17377.439447
-568.449652
-12587.936143
-18233.350400
-89.341617
-50305.424292
877.918838
2203.932460
71.853746
4414.094181
7611.579519
2879.036972
17216.532793
3194.841122
-3064.150982
-7924.349452
-4332.028955
5839.470344
-10376.609779
-51293.604478
-12818.825248
24017.952633
20817.159644
956.132328
717.394896
-5752.386758
3155.950872
3987.526507
1341.087297
16475.410059
163.742390
-9411.830106
73105.439245
10053.485221
-1443.848033
-6097.593217
-673.270490
22989.457442
-13698.835102
1537.600333
-41039.539274
19971.755233
469.733295
-5344.791539
-19110.871380
1311.196819
4264.222940
186.139087
1072.252921
-3431.689173
1897.820776
-6147.661368
-919.773779
-5514.515615
-4164.827852
573.198695
762.370001
-944.655406
-3957.960716
-37794.979232
-7221.415932
-145.869232
578.196911
-2403.421737
-36789.385585
-4219.553266
-1904.190165
-17231.367168
355.244009
5688.403595
-2302.634149
-17253.515220
1073.190433
-6343.715666
-11982.309220
-1861.778576
25570.821198
19926.846727
-154.653863
8458.912416
-87.141802
-957.967064
15296.066733
-39956.733926
22466.158341
475.736174
794.069396
-7070.803321
1363.504586
35715.688826
-607.094561
-16797.091815
817.068308
46826.114048
1350.127770
188.070065
11602.040111
7156.952884
971.774334
-642.966565
21938.821188
64554.323607
-380.050981
-9046.808005
4675.175166
-884.073580
9319.816824
-8489.615982
3622.119237
-9385.053453
344.660863
-648.905446
7380.787169
786.374360
-1094.390415
-2509.747614
8963.147943
-228.660794
-1638.858434
1100.176242
1137.139692
8164.324355
-22592.774153
43530.358893
53511.869735
-9371.994032
9325.902420
898.577138
50.527643
-21799.694857
9102.081952
-17115.957345
5981.283177
8636.767179
-5028.737638
-1730.200545
293.980325
-235.573155
13297.038260
555.198723
-2402.949070
-30676.608259
-707.956137
3752.746051
961.493463
3360.990111
-38.445337
2367.402393
22642.646072
10488.645396
-28.580403
-27391.479599
-4989.853055
545.084303
694.597132
10.707279
-10444.701723
-87.956167
-5189.527668
-1149.713399
-7251.984780
-4217.423779
-3736.897969
-8421.993065
-2311.362491
-3206.585682
1630.900937
-1755.941862
1725.210914
83712.283430
-17954.400260
262.665615
3140.863946
-3316.976579
-1418.446175
-23177.540127
11391.539996
8380.755871
27198.219668
-1617.021825
-5243.376898
1469.721658
63247.945060
-7875.842698
27910.855942
-2357.708041
30262.995798
489.319122
75019.805286
-2256.886607
-545.731436
-3388.663686
583.917437
28806.010339
1461.910747
63.962164
-3367.820275
1506.185940
-2139.039470
-63.166789
-13626.619197
-20128.857853
708.322805
-196.892864
-4004.802477
-11817.437532
9740.544789
1274.028347
-632.133580
-87723.898282
9538.997595
-13680.322457
-9201.063954
717.587539
-5342.165842
26657.434805
1361.230737
-10669.498097
4318.147123
1083.485696
153.592704
15769.398864
27209.943319
4600.710722
-78891.662449
-79.248973
-7794.039466
-18.267448
-2207.960188
32115.566411
-41107.894900
2493.801375
3138.964893
11082.394238
-27178.695710
-108545.343032
-10457.190309
5949.428465
68.191750
-12778.684591
5555.143418
-57731.706272
-141.558543
-5387.215204
204.336118
1008.449604
-948.507125
-5796.990699
4286.898218
1399.520500
20585.582750
98.598291
1019.041706
-2092.514384
-772.930841
-5521.058771
46344.430657
-528.450180
-17654.806839
1669.104298
527.387152
-120.176894
4114.567616
-26064.972261
126.759229
194.503161
-2101.137987
-2498.554570
315.872441
-45986.993965
-1972.821408
-13859.068107
-1321.012823
-21649.229719
-25147.476846
19857.960247
-11495.660402
26074.629186
9407.257163
118.885388
-1398.030238
-5573.665499
902.514542
664.172296
958.533753
2506.120430
4816.951348
-33685.560943
-2267.154403
3443.819474
12754.730155
-3296.561701
9548.801245
-13781.603792
22031.627023
-67602.748290
-13412.158640
10489.501819
-227.593095
1101.701482
12861.468166
1042.477743
17015.735591
82508.993065
14221.602269
-24885.253181
12461.608903
1420.607331
129.764912
15454.325332
21782.570807
35172.637745
-1590.155931
-5.649367
10079.234642
1113.863149
4413.844955
15239.305993
1876.060909
9813.525328
530.308026
220.105331
-17277.817476
-8266.035751
32095.336997
13577.769646
-868.236639
9103.667745
61.418081
-873.951295
376.998877
-265.807586
36704.885565
1101.829738
-42058.212349
-6829.956077
4897.422730
5149.337653
-50.982036
3069.661223
-525.546658
895.901847
-4248.753052
4539.096330
809.367387
699.937066
-10090.179829
-2591.764712
3264.818297
598.408067
1760.406088
94592.805528
380.122122
10174.051684
-450.105159
8091.426061
1045.073280
992.547401
-2429.435783
-5845.963886
20552.144996
32006.827817
-741.060844
-176.712595
-559.195502
51373.588224
277.659707
10729.536421
-3535.637941
25627.575895
20364.892848
-1462.082669
677.237218
254.303417
-9754.449471
17340.315668
3134.349838
902.881709
222.605000
-8310.827826
-6598.858547
-1059.322756
-11245.792026
10438.751531
-1124.199289
7304.297725
-34259.315160
-65004.932775
667.258131
1009.386374
-1070.580475
-7256.748552
5846.891624
1508.449517
-7064.122578
145.279593
-3844.421681
-11222.842213
-10789.828774
-2305.528529
-1671.697013
-71.801823
-30942.379856
-1063.323452
2183.960857
-3035.309832
-7241.885880
-20683.607019
2606.717310
-5908.650321
-1522.053224
2497.343604
30225.712972
49439.891038
-4486.708771
15855.301391
1991.749158
-173.681745
-5880.203364
16191.500232
-10077.129339
1034.413581
6929.242389
5278.402471
5619.415276
-43048.381253
2771.461849
1444.716238
-54525.519733
-51013.660433
54788.579462
-303.779663
4163.368645
-17599.880263
1134.878018
3014.800493
-3179.678123
965.550044
6628.905110
-13139.173292
2592.421723
-15870.826165
1143.703206
-830.263822
-364.186139
-14711.740585
12003.536014
3647.785677
457.215909
433.792040
-49362.385884
-10691.566325
-139.527339
17782.016358
22511.023691
-3936.027019
2859.163391
-7402.173317
137.794211
365.790099
1191.833504
-10809.851086
286.784636
6946.969968
-11432.162619
-574.222364
22384.216982
-7525.202340
-462.174675
-4798.160968
-11905.920945
-9581.876957
-997.848370
-307.138783
-130.727938
4140.543259
192.079178
4763.274016
65721.387835
21725.261898
360.158587
-4352.799875
-104.352537
5565.777244
31896.590539
1161.397879
-798.740735
28774.972912
-2763.993494
5563.396322
-3853.835430
-349.821685
-809.202897
1041.901917
-7145.205612
-4661.727131
1169.466171
5490.639373
-1990.937228
-230.255069
6.827385
15971.555263
-12975.794268
-4347.340073
9720.530893
-50852.446369
3659.720342
-60195.102522
12349.135464
-1155.740091
876.712206
197.539071
-25113.953088
13991.194181
-2474.440458
82965.882474
45793.803126
322.653046
3731.289527
138.001308
1711.761828
2142.144039
11211.305731
-24087.854205
442.717974
-684.703905
-155.136826
26353.375412
2804.332012
-38623.751070
-535.756437
11087.461599
158.201076
1414.987661
-4342.388085
34882.756942
-226.977232
-2118.026619
9973.690820
3193.276833
5089.190802
-13182.252044
10841.014190
435.443473
687.802487
-6018.559872
11103.362976
-2615.081702
2106.808676
2194.533915
-3014.022189
-25792.327864
-1788.467477
-5466.478865
-11707.122396
-1311.654346
31.916328
-9911.923886
2512.154233
4398.645327
-1888.585029
2658.024709
-51192.974705
7174.383279
-360.856167
-312.682546
-14345.962926
-3752.717933
494.292337
1737.125612
-5174.898668
16184.785498
1316.943114
14759.864939
-15271.856509
747.655737
-5115.708803
-12031.910589
10925.475290
-381.042213
-80745.706640
-13316.090114
-4.597163
-2525.516756
49997.615698
-1793.008074
150.221907
-1304.981587
-3052.525905
904.103231
2592.832110
14624.347289
-3690.930982
-3428.591846
3756.711570
29910.119943
15324.058943
-20997.779359
-23145.506493
4632.851621
-4203.389363
-19754.129819
-2453.367012
-26480.382941
1434.571999
4348.213717
14626.532472
-1625.533758
4924.462723
15980.590007
-35416.792974
-1356.992296
10656.844248
201.695688
349.576382
348.724535
-65.162723
-1435.551296
-189.290740
-858.804374
2947.300079
40096.880975
1453.508937
13773.614405
7467.401593
-972.989108
8538.021234
-295.004729
1150.078573
1717.013381
-5098.839168
1129.615160
-665.949760
1781.789003
2427.481865
-19666.636847
-1233.664264
1819.155299
1130.946650
-13867.146427
14140.485650
426.485170
-8694.972201
-1867.377574
-7687.065929
-12237.810907
16606.914689
100.931538
4288.215191
-2049.464337
-71904.324168
-487.202712
12531.931429
16843.045933
-3808.803749
69.867768
33425.777514
302.699375
27803.922706
38155.211582
1033.582408
384.689365
-1771.617886
-41386.086952
-16308.085752
496.350850
-66080.016601
924.623244
2141.875256
531.266692
2488.668978
325.031603
9789.490269
745.929075
-3210.963654
-1039.231489
833.120747
3919.536185
-6958.156784
-2078.995694
-393.372530
-264.103834
7977.959725
-18290.057890
14803.718823
-25096.644612
-395.388440
477.358895
365.036668
-3305.958161
1618.024097
2058.503534
2416.011798
52359.109679
648.113191
-3071.718692
-332.601327
-1230.570163
2141.938496
2681.788426
12557.135141
28451.639517
38509.574040
-4135.246242
6087.984919
720.879488
-9784.509325
11995.604815
-1159.855486
6004.103108
-1531.270829
3048.741775
1398.872824
-3946.869727
-4206.342605
-27070.652176
-53435.174312
-5159.150679
22358.626603
-640.195299
2805.955343
1314.197802
-1006.190975
5367.808523
-50446.598291
-49247.726117
-147.747781
8056.028579
11728.542969
-5738.261724
5674.609400
817.530265
-15321.683163
3606.183830
-175.431041
5243.385785
-11884.096400
-11213.271187
30375.125902
-1649.402208
54550.683443
3141.341191
-66914.340205
20624.779355
-1733.649239
555.754399
2403.480240
4588.328959
-39246.306376
-9722.847796
-489.247462
-4371.642826
-1112.891195
33935.062754
50677.165542
6312.091468
-355.318855
-3198.264514
3767.920846
-4949.513906
-318.511120
430.108983
-38106.199485
11362.827073
-9994.666875
-4400.584963
463.114942
-2567.214946
-5890.766034
-28.848174
4976.433417
104.880411
-63045.217825
-13022.876098
-14997.216261
9143.987023
5913.465269
-3645.964968
2174.695556
-8127.322271
-2749.675129
544.804818
1307.788263
847.077915
489.124286
-4865.517301
9543.764433
520.089006
-53645.217889
-18206.246836
-14098.053396
54345.358973
-5256.231326
-6058.007160
4065.750541
376.267300
-1473.746116
583.871459
18619.116257
26345.451156
-114.510760
2331.998020
-52152.076461
-17013.600745
-2656.497153
-650.970458
35696.467731
-77739.509434
1688.831723
4028.889679
-5439.255051
-19716.278845
-1485.978284
1543.884052
852.708046
57644.010667
4881.590826
-40186.190622
-8729.301821
34952.288441
-825.142839
-7640.843768
77643.482288
-1708.874560
-7494.444646
351.520106
10253.228994
1926.910389
-24015.029562
-11755.948853
6635.747678
-238.441175
6491.257779
-16590.640619
-3282.002310
-18.450498
4392.650238
1149.318740
