# vtk DataFile Version 2.0
patchtest_tri3_mix
ASCII
DATASET POLYDATA
POINTS 86 float
0.000000 0.000000 0.000000
1.000000 0.000000 0.000000
1.000000 1.000000 0.000000
0.000000 1.000000 0.000000
0.125000 0.000000 0.000000
0.250000 0.000000 0.000000
0.375000 0.000000 0.000000
0.500000 0.000000 0.000000
0.625000 0.000000 0.000000
0.750000 0.000000 0.000000
0.875000 0.000000 0.000000
1.000000 0.125000 0.000000
1.000000 0.250000 0.000000
1.000000 0.375000 0.000000
1.000000 0.500000 0.000000
1.000000 0.625000 0.000000
1.000000 0.750000 0.000000
1.000000 0.875000 0.000000
0.875000 1.000000 0.000000
0.750000 1.000000 0.000000
0.625000 1.000000 0.000000
0.500000 1.000000 0.000000
0.375000 1.000000 0.000000
0.250000 1.000000 0.000000
0.125000 1.000000 0.000000
0.000000 0.875000 0.000000
0.000000 0.750000 0.000000
0.000000 0.625000 0.000000
0.000000 0.500000 0.000000
0.000000 0.375000 0.000000
0.000000 0.250000 0.000000
0.000000 0.125000 0.000000
0.485087 0.367066 0.000000
0.783788 0.278598 0.000000
0.727744 0.357442 0.000000
0.285897 0.126464 0.000000
0.714488 0.192507 0.000000
0.124912 0.809984 0.000000
0.265598 0.878712 0.000000
0.129262 0.710037 0.000000
0.248208 0.368134 0.000000
0.678144 0.635856 0.000000
0.784700 0.592338 0.000000
0.611957 0.379666 0.000000
0.733944 0.109785 0.000000
0.513686 0.493594 0.000000
0.543570 0.619957 0.000000
0.252261 0.766372 0.000000
0.365550 0.396313 0.000000
0.243233 0.247833 0.000000
0.429988 0.127274 0.000000
0.413962 0.628696 0.000000
0.881380 0.615372 0.000000
0.622699 0.256575 0.000000
0.589856 0.869047 0.000000
0.141555 0.122701 0.000000
0.841938 0.895995 0.000000
0.505487 0.745261 0.000000
0.504063 0.242860 0.000000
0.122606 0.371221 0.000000
0.384935 0.874991 0.000000
0.138914 0.612429 0.000000
0.741688 0.480816 0.000000
0.629309 0.746759 0.000000
0.864385 0.116670 0.000000
0.381685 0.751733 0.000000
0.241787 0.482484 0.000000
0.876165 0.218625 0.000000
0.697991 0.892569 0.000000
0.581949 0.121932 0.000000
0.774171 0.730696 0.000000
0.742854 0.819697 0.000000
0.883283 0.730623 0.000000
0.278494 0.570262 0.000000
0.392579 0.510484 0.000000
0.272360 0.660952 0.000000
0.492722 0.875863 0.000000
0.889910 0.844372 0.000000
0.836536 0.436636 0.000000
0.900713 0.501129 0.000000
0.120288 0.246110 0.000000
0.370826 0.259408 0.000000
0.890152 0.348277 0.000000
0.639291 0.509102 0.000000
0.135103 0.894725 0.000000
0.121105 0.498856 0.000000
POLYGONS 138 552
3 31 0 4
3 31 55 80
3 55 31 4
3 49 80 55
3 49 59 80
3 31 80 30
3 29 30 59
3 85 59 66
3 59 85 29
3 59 30 80
3 85 66 61
3 59 40 66
3 29 85 28
3 55 4 5
3 35 49 55
3 35 5 6
3 6 7 50
3 58 50 69
3 6 50 35
3 35 50 81
3 40 81 48
3 81 40 49
3 40 48 66
3 49 40 59
3 81 58 32
3 81 49 35
3 32 45 74
3 81 32 48
3 50 58 81
3 66 48 74
3 50 7 69
3 35 55 5
3 74 48 32
3 28 85 27
3 27 39 26
3 39 27 61
3 47 37 39
3 26 39 37
3 61 27 85
3 3 25 84
3 37 25 26
3 84 25 37
3 24 84 23
3 84 24 3
3 38 23 84
3 38 84 37
3 39 61 75
3 75 73 51
3 75 47 39
3 75 51 65
3 51 73 74
3 51 74 45
3 76 65 57
3 66 73 61
3 75 65 47
3 38 60 22
3 38 47 65
3 38 22 23
3 47 38 37
3 60 76 21
3 38 65 60
3 54 21 76
3 60 21 22
3 65 76 60
3 65 51 57
3 75 61 73
3 66 74 73
3 43 32 58
3 69 8 44
3 8 69 7
3 69 44 36
3 44 8 9
3 44 64 36
3 33 53 36
3 69 36 53
3 83 45 43
3 45 32 43
3 34 62 43
3 33 34 53
3 78 62 34
3 34 43 53
3 53 43 58
3 62 83 43
3 44 9 64
3 53 58 69
3 64 10 11
3 67 36 64
3 64 11 67
3 11 10 1
3 67 11 12
3 67 33 36
3 82 78 34
3 33 67 82
3 79 78 82
3 82 34 33
3 12 13 82
3 79 82 13
3 67 12 82
3 62 78 42
3 64 9 10
3 13 14 79
3 63 57 46
3 57 51 46
3 41 42 70
3 41 83 62
3 63 46 41
3 83 41 46
3 46 45 83
3 63 41 70
3 20 54 68
3 63 54 57
3 68 54 63
3 20 21 54
3 19 68 56
3 71 68 63
3 71 56 68
3 68 19 20
3 63 70 71
3 71 70 77
3 54 76 57
3 52 72 70
3 52 42 79
3 52 15 72
3 15 52 79
3 15 79 14
3 72 15 16
3 62 42 41
3 77 70 72
3 18 56 17
3 56 71 77
3 17 56 77
3 56 18 19
3 16 17 77
3 17 2 18
3 77 72 16
3 70 42 52
3 78 79 42
3 46 51 45
POINT_DATA 86
SCALARS P float 1
LOOKUP_TABLE default
3099.460738
-72.146746
-6.298287
-3332.249226
2614.883091
2266.268965
1868.396061
1478.244078
1078.844795
503.274643
258.177850
81.424671
144.494615
-34.798131
-43.653863
-18.149220
104.784427
200.257346
-726.073389
-1435.926497
-1528.430044
-1465.327547
-2079.505689
-2187.592335
-3726.701914
-1519.864759
-1425.048939
-661.351017
170.774456
775.565732
1691.670595
2102.050345
404.184132
655.723681
64.077939
1548.703667
111.891273
-2781.164337
-1752.367407
-472.648641
571.378644
-273.414335
-229.809012
288.196483
934.071016
19.606886
-308.451464
-1051.317859
371.842041
1170.228541
1269.351027
-405.366998
-197.210322
679.945095
-887.344564
1895.489924
629.951315
-717.265983
714.258302
608.756480
-1237.840141
-838.680927
146.952111
-530.383069
419.749493
-964.488275
144.050211
-56.360837
162.870579
946.119670
58.738496
-1357.349190
-59.869625
-261.128477
-38.457677
-764.127357
-1093.428138
-913.275874
-31.976085
160.988814
1255.826344
907.573496
105.201610
-15.406911
-870.437931
38.164110
