# vtk DataFile Version 2.0
patchtest_tri3_mix
ASCII
DATASET POLYDATA
POINTS 380 float
0.000000 0.000000 0.000000
1.000000 0.000000 0.000000
1.000000 1.000000 0.000000
0.000000 1.000000 0.000000
0.062500 0.000000 0.000000
0.125000 0.000000 0.000000
0.187500 0.000000 0.000000
0.250000 0.000000 0.000000
0.312500 0.000000 0.000000
0.375000 0.000000 0.000000
0.437500 0.000000 0.000000
0.500000 0.000000 0.000000
0.562500 0.000000 0.000000
0.625000 0.000000 0.000000
0.687500 0.000000 0.000000
0.750000 0.000000 0.000000
0.812500 0.000000 0.000000
0.875000 0.000000 0.000000
0.937500 0.000000 0.000000
1.000000 0.062500 0.000000
1.000000 0.125000 0.000000
1.000000 0.187500 0.000000
1.000000 0.250000 0.000000
1.000000 0.312500 0.000000
1.000000 0.375000 0.000000
1.000000 0.437500 0.000000
1.000000 0.500000 0.000000
1.000000 0.562500 0.000000
1.000000 0.625000 0.000000
1.000000 0.687500 0.000000
1.000000 0.750000 0.000000
1.000000 0.812500 0.000000
1.000000 0.875000 0.000000
1.000000 0.937500 0.000000
0.937500 1.000000 0.000000
0.875000 1.000000 0.000000
0.812500 1.000000 0.000000
0.750000 1.000000 0.000000
0.687500 1.000000 0.000000
0.625000 1.000000 0.000000
0.562500 1.000000 0.000000
0.500000 1.000000 0.000000
0.437500 1.000000 0.000000
0.375000 1.000000 0.000000
0.312500 1.000000 0.000000
0.250000 1.000000 0.000000
0.187500 1.000000 0.000000
0.125000 1.000000 0.000000
0.062500 1.000000 0.000000
0.000000 0.937500 0.000000
0.000000 0.875000 0.000000
0.000000 0.812500 0.000000
0.000000 0.750000 0.000000
0.000000 0.687500 0.000000
0.000000 0.625000 0.000000
0.000000 0.562500 0.000000
0.000000 0.500000 0.000000
0.000000 0.437500 0.000000
0.000000 0.375000 0.000000
0.000000 0.312500 0.000000
0.000000 0.250000 0.000000
0.000000 0.187500 0.000000
0.000000 0.125000 0.000000
0.000000 0.062500 0.000000
0.104616 0.525007 0.000000
0.797805 0.426999 0.000000
0.158675 0.578450 0.000000
0.105410 0.577583 0.000000
0.684769 0.211925 0.000000
0.532736 0.947298 0.000000
0.053044 0.266000 0.000000
0.947295 0.100259 0.000000
0.895493 0.118229 0.000000
0.319824 0.104186 0.000000
0.481552 0.789138 0.000000
0.320769 0.639327 0.000000
0.798775 0.635807 0.000000
0.657224 0.051820 0.000000
0.214271 0.894535 0.000000
0.342951 0.051308 0.000000
0.264129 0.528562 0.000000
0.531649 0.577222 0.000000
0.152576 0.687644 0.000000
0.215975 0.946425 0.000000
0.322342 0.372744 0.000000
0.948539 0.157407 0.000000
0.053208 0.101733 0.000000
0.199874 0.678715 0.000000
0.157746 0.631624 0.000000
0.639893 0.842286 0.000000
0.718428 0.050883 0.000000
0.319187 0.317986 0.000000
0.373310 0.479315 0.000000
0.050818 0.732525 0.000000
0.323965 0.681279 0.000000
0.899830 0.562203 0.000000
0.588162 0.947609 0.000000
0.848791 0.781998 0.000000
0.050332 0.951147 0.000000
0.106464 0.052095 0.000000
0.848706 0.530805 0.000000
0.428122 0.894481 0.000000
0.052593 0.787328 0.000000
0.798559 0.819922 0.000000
0.160061 0.262548 0.000000
0.691960 0.424895 0.000000
0.214518 0.785493 0.000000
0.052907 0.415848 0.000000
0.636590 0.526379 0.000000
0.483582 0.683045 0.000000
0.748480 0.720517 0.000000
0.533617 0.894947 0.000000
0.586419 0.895156 0.000000
0.405660 0.051545 0.000000
0.746442 0.323585 0.000000
0.150740 0.851899 0.000000
0.531809 0.470541 0.000000
0.377053 0.102641 0.000000
0.848955 0.592307 0.000000
0.749895 0.269106 0.000000
0.848825 0.214680 0.000000
0.849536 0.342159 0.000000
0.503324 0.204559 0.000000
0.176255 0.816860 0.000000
0.255098 0.647789 0.000000
0.481174 0.308975 0.000000
0.797624 0.882262 0.000000
0.898425 0.753048 0.000000
0.383757 0.407174 0.000000
0.531714 0.523813 0.000000
0.264926 0.105208 0.000000
0.371700 0.524373 0.000000
0.791664 0.941818 0.000000
0.948202 0.217864 0.000000
0.104373 0.842449 0.000000
0.158036 0.473113 0.000000
0.267580 0.369728 0.000000
0.480317 0.522764 0.000000
0.639922 0.368530 0.000000
0.209787 0.527725 0.000000
0.799451 0.695183 0.000000
0.898807 0.373606 0.000000
0.796320 0.533596 0.000000
0.323384 0.895472 0.000000
0.252276 0.816197 0.000000
0.416759 0.153574 0.000000
0.104145 0.897713 0.000000
0.266479 0.317022 0.000000
0.431018 0.416176 0.000000
0.584631 0.578070 0.000000
0.791757 0.118272 0.000000
0.692704 0.371891 0.000000
0.951882 0.952861 0.000000
0.690188 0.158882 0.000000
0.534628 0.789221 0.000000
0.585595 0.419189 0.000000
0.949411 0.531055 0.000000
0.848504 0.898161 0.000000
0.052209 0.898112 0.000000
0.799296 0.757158 0.000000
0.532508 0.417541 0.000000
0.563376 0.101444 0.000000
0.478662 0.469448 0.000000
0.052317 0.526030 0.000000
0.322920 0.839751 0.000000
0.051664 0.048957 0.000000
0.848262 0.277358 0.000000
0.104732 0.682836 0.000000
0.842168 0.099845 0.000000
0.106072 0.157141 0.000000
0.637370 0.473591 0.000000
0.107311 0.314682 0.000000
0.159362 0.737156 0.000000
0.053197 0.156769 0.000000
0.104569 0.948825 0.000000
0.322704 0.789117 0.000000
0.642782 0.947686 0.000000
0.533917 0.842071 0.000000
0.428292 0.789023 0.000000
0.322530 0.211262 0.000000
0.740797 0.213535 0.000000
0.318490 0.530710 0.000000
0.948225 0.719029 0.000000
0.384666 0.567635 0.000000
0.428991 0.628486 0.000000
0.212902 0.421644 0.000000
0.531580 0.152871 0.000000
0.266259 0.158062 0.000000
0.160668 0.897114 0.000000
0.798610 0.242202 0.000000
0.106350 0.209693 0.000000
0.213873 0.210537 0.000000
0.438976 0.205544 0.000000
0.780313 0.057145 0.000000
0.533883 0.630202 0.000000
0.213424 0.263199 0.000000
0.948384 0.841160 0.000000
0.536060 0.683317 0.000000
0.948281 0.280048 0.000000
0.624204 0.103564 0.000000
0.848439 0.841748 0.000000
0.640584 0.789573 0.000000
0.213747 0.851157 0.000000
0.844851 0.949001 0.000000
0.053154 0.316281 0.000000
0.431554 0.683753 0.000000
0.640799 0.157258 0.000000
0.534466 0.311252 0.000000
0.373576 0.314579 0.000000
0.640857 0.315862 0.000000
0.157340 0.525871 0.000000
0.693989 0.791394 0.000000
0.799783 0.307738 0.000000
0.898478 0.817000 0.000000
0.588763 0.736631 0.000000
0.690749 0.476330 0.000000
0.276668 0.849022 0.000000
0.283500 0.611215 0.000000
0.745595 0.376364 0.000000
0.160083 0.209979 0.000000
0.948300 0.342541 0.000000
0.746925 0.838663 0.000000
0.480791 0.894893 0.000000
0.626356 0.209361 0.000000
0.427506 0.310159 0.000000
0.693940 0.318702 0.000000
0.103401 0.791806 0.000000
0.482220 0.362420 0.000000
0.949006 0.594068 0.000000
0.430215 0.736361 0.000000
0.691976 0.892927 0.000000
0.212574 0.629721 0.000000
0.899791 0.941930 0.000000
0.051881 0.631947 0.000000
0.212933 0.157915 0.000000
0.643332 0.263499 0.000000
0.317433 0.157639 0.000000
0.898620 0.437050 0.000000
0.689545 0.526182 0.000000
0.382626 0.635692 0.000000
0.160523 0.367939 0.000000
0.744506 0.893412 0.000000
0.053093 0.211940 0.000000
0.429539 0.520643 0.000000
0.361072 0.435024 0.000000
0.897852 0.309551 0.000000
0.423469 0.259466 0.000000
0.377765 0.734818 0.000000
0.213517 0.316048 0.000000
0.105251 0.630025 0.000000
0.584567 0.472077 0.000000
0.848187 0.469219 0.000000
0.472952 0.154653 0.000000
0.745234 0.428877 0.000000
0.266595 0.263838 0.000000
0.324270 0.948114 0.000000
0.107202 0.367349 0.000000
0.373826 0.947608 0.000000
0.584115 0.525101 0.000000
0.271594 0.946968 0.000000
0.369995 0.263308 0.000000
0.052896 0.843410 0.000000
0.373679 0.362548 0.000000
0.535844 0.736310 0.000000
0.533428 0.258742 0.000000
0.160429 0.315260 0.000000
0.281338 0.052137 0.000000
0.693578 0.841309 0.000000
0.588828 0.260862 0.000000
0.211066 0.582074 0.000000
0.159575 0.947094 0.000000
0.375541 0.893768 0.000000
0.480923 0.841970 0.000000
0.263234 0.476824 0.000000
0.159514 0.420512 0.000000
0.642178 0.684420 0.000000
0.052558 0.680800 0.000000
0.221226 0.052487 0.000000
0.747962 0.658075 0.000000
0.693445 0.946670 0.000000
0.682381 0.104583 0.000000
0.899578 0.499635 0.000000
0.374936 0.787482 0.000000
0.325438 0.732907 0.000000
0.848703 0.655791 0.000000
0.276142 0.778185 0.000000
0.478022 0.255863 0.000000
0.468770 0.050969 0.000000
0.531605 0.051501 0.000000
0.264963 0.423571 0.000000
0.365991 0.156842 0.000000
0.740901 0.948083 0.000000
0.747647 0.780951 0.000000
0.948571 0.047299 0.000000
0.898157 0.688640 0.000000
0.106553 0.262141 0.000000
0.641862 0.736919 0.000000
0.849281 0.405780 0.000000
0.692760 0.631462 0.000000
0.271871 0.687124 0.000000
0.427829 0.841535 0.000000
0.106068 0.419790 0.000000
0.898514 0.625208 0.000000
0.690253 0.577652 0.000000
0.898413 0.245474 0.000000
0.849079 0.719619 0.000000
0.213919 0.368923 0.000000
0.159490 0.157370 0.000000
0.314382 0.423887 0.000000
0.586885 0.842252 0.000000
0.315924 0.479974 0.000000
0.948581 0.898866 0.000000
0.798279 0.368869 0.000000
0.500193 0.102311 0.000000
0.948485 0.656628 0.000000
0.480633 0.415733 0.000000
0.259482 0.576471 0.000000
0.637555 0.579161 0.000000
0.534595 0.364338 0.000000
0.836923 0.050223 0.000000
0.053251 0.364166 0.000000
0.379405 0.209552 0.000000
0.162986 0.052178 0.000000
0.695394 0.685566 0.000000
0.148236 0.783658 0.000000
0.743028 0.538344 0.000000
0.795862 0.482498 0.000000
0.211805 0.105099 0.000000
0.639160 0.895002 0.000000
0.483066 0.736255 0.000000
0.220391 0.707745 0.000000
0.796548 0.582657 0.000000
0.268901 0.735974 0.000000
0.267784 0.210981 0.000000
0.639979 0.631766 0.000000
0.210751 0.474648 0.000000
0.898452 0.880256 0.000000
0.429795 0.361120 0.000000
0.319800 0.571339 0.000000
0.737260 0.103519 0.000000
0.374700 0.841164 0.000000
0.318510 0.264363 0.000000
0.948458 0.780931 0.000000
0.210172 0.750753 0.000000
0.948646 0.405510 0.000000
0.588933 0.683850 0.000000
0.438239 0.102090 0.000000
0.587680 0.155256 0.000000
0.744333 0.597170 0.000000
0.480876 0.630084 0.000000
0.844487 0.156150 0.000000
0.949102 0.468165 0.000000
0.565353 0.206926 0.000000
0.696951 0.265955 0.000000
0.743752 0.482596 0.000000
0.793507 0.181213 0.000000
0.587621 0.789433 0.000000
0.638735 0.421097 0.000000
0.159169 0.104474 0.000000
0.740384 0.157690 0.000000
0.377041 0.683074 0.000000
0.102122 0.736245 0.000000
0.052469 0.580559 0.000000
0.594987 0.051118 0.000000
0.423783 0.466832 0.000000
0.355784 0.601716 0.000000
0.052735 0.470624 0.000000
0.894350 0.057440 0.000000
0.267752 0.895725 0.000000
0.477742 0.947562 0.000000
0.429246 0.577384 0.000000
0.424119 0.947573 0.000000
0.106221 0.104458 0.000000
0.587122 0.366309 0.000000
0.587658 0.313335 0.000000
0.105120 0.472323 0.000000
0.694876 0.739640 0.000000
0.898334 0.180565 0.000000
0.479472 0.575963 0.000000
0.586872 0.631016 0.000000
POLYGONS 694 2776
3 63 0 165
3 372 173 86
3 4 165 0
3 165 99 86
3 165 86 63
3 63 86 62
3 61 62 173
3 60 61 242
3 190 242 173
3 173 242 61
3 173 62 86
3 190 173 169
3 173 372 169
3 70 60 242
3 165 4 99
3 358 372 99
3 99 372 86
3 5 99 4
3 322 99 5
3 327 358 322
3 322 358 99
3 6 322 5
3 277 327 322
3 358 307 169
3 190 307 219
3 169 307 190
3 219 307 234
3 295 190 219
3 234 191 219
3 234 327 130
3 191 234 187
3 234 307 327
3 358 327 307
3 242 190 295
3 322 6 277
3 169 372 358
3 104 219 191
3 58 59 320
3 70 59 60
3 204 59 70
3 320 204 171
3 70 171 204
3 256 107 320
3 204 320 59
3 70 242 295
3 58 320 107
3 57 366 56
3 366 57 107
3 163 56 366
3 301 375 366
3 256 301 107
3 375 301 135
3 301 366 107
3 57 58 107
3 375 64 366
3 295 171 70
3 265 256 171
3 171 256 320
3 104 171 295
3 265 171 104
3 265 195 248
3 195 265 104
3 248 195 254
3 256 265 240
3 104 191 195
3 240 265 248
3 274 135 301
3 274 256 240
3 274 240 306
3 135 274 335
3 274 185 335
3 185 274 306
3 185 306 289
3 335 185 289
3 240 248 306
3 64 375 135
3 248 147 306
3 274 301 256
3 295 219 104
3 335 210 135
3 254 195 191
3 277 7 266
3 7 277 6
3 266 7 8
3 130 277 266
3 79 73 266
3 79 8 9
3 290 73 117
3 79 266 8
3 130 266 73
3 187 236 333
3 236 187 130
3 333 191 187
3 187 234 130
3 236 290 179
3 236 130 73
3 179 290 321
3 236 179 333
3 73 290 236
3 341 333 179
3 73 79 117
3 333 254 191
3 113 117 79
3 113 9 10
3 117 113 346
3 113 79 9
3 287 346 113
3 287 10 11
3 252 346 313
3 287 113 10
3 117 346 145
3 246 321 192
3 321 290 145
3 192 321 145
3 179 321 260
3 286 192 122
3 252 192 145
3 252 122 192
3 192 286 246
3 145 346 252
3 246 286 224
3 313 346 287
3 145 290 117
3 246 260 321
3 136 147 91
3 147 136 306
3 341 147 254
3 136 289 306
3 91 341 208
3 341 254 333
3 84 91 262
3 341 91 147
3 179 260 341
3 136 91 84
3 273 289 308
3 335 289 273
3 289 136 308
3 273 308 310
3 308 244 310
3 244 308 84
3 128 244 84
3 310 244 92
3 136 84 308
3 80 273 310
3 260 208 341
3 248 254 147
3 262 337 128
3 337 262 208
3 364 244 128
3 128 84 262
3 224 125 337
3 227 148 337
3 128 337 148
3 224 337 208
3 208 260 224
3 315 148 227
3 92 364 243
3 244 364 92
3 243 364 162
3 310 92 131
3 162 137 243
3 162 148 315
3 116 137 162
3 162 364 148
3 128 148 364
3 243 137 378
3 378 137 129
3 262 91 208
3 260 246 224
3 335 273 139
3 125 224 286
3 277 130 327
3 131 92 243
3 54 55 362
3 362 163 67
3 64 163 366
3 233 362 249
3 163 362 55
3 55 56 163
3 54 362 233
3 53 93 52
3 93 53 276
3 102 52 93
3 93 276 167
3 233 249 276
3 93 167 361
3 233 276 53
3 53 54 233
3 361 102 93
3 64 67 163
3 67 210 66
3 210 67 64
3 66 210 139
3 249 67 66
3 269 316 231
3 316 269 139
3 66 269 88
3 139 269 66
3 335 139 210
3 231 88 269
3 82 167 88
3 167 276 249
3 88 167 249
3 82 172 361
3 87 172 82
3 87 88 231
3 343 172 330
3 87 82 88
3 249 66 88
3 82 361 167
3 172 87 330
3 249 362 67
3 135 210 64
3 324 361 172
3 50 51 261
3 102 51 52
3 261 51 102
3 261 226 134
3 226 261 102
3 134 226 324
3 50 261 158
3 361 226 102
3 146 261 134
3 49 98 3
3 98 49 158
3 3 98 48
3 98 174 48
3 146 158 261
3 146 174 158
3 158 174 98
3 49 50 158
3 134 115 146
3 324 123 115
3 123 324 106
3 115 123 202
3 188 146 115
3 106 202 123
3 285 106 343
3 78 202 368
3 106 324 343
3 361 324 226
3 115 202 188
3 174 270 47
3 174 146 270
3 47 270 46
3 174 47 48
3 270 83 46
3 78 188 202
3 78 83 188
3 188 83 270
3 188 270 146
3 202 106 144
3 115 134 324
3 172 343 324
3 124 87 231
3 217 316 338
3 124 231 316
3 338 316 80
3 316 217 124
3 338 75 217
3 365 75 338
3 94 75 360
3 338 80 181
3 310 181 80
3 217 75 124
3 332 330 299
3 330 87 124
3 299 330 124
3 332 285 343
3 299 94 283
3 299 124 75
3 283 94 360
3 299 283 332
3 75 94 299
3 285 332 283
3 338 181 131
3 316 139 80
3 338 183 365
3 183 338 131
3 131 243 183
3 239 365 183
3 184 370 378
3 183 370 239
3 183 243 370
3 184 378 349
3 243 378 370
3 184 239 370
3 247 360 205
3 360 75 239
3 205 360 239
3 247 283 360
3 329 229 205
3 205 229 247
3 205 239 184
3 74 178 229
3 184 349 205
3 282 283 247
3 349 378 81
3 75 365 239
3 139 273 80
3 178 247 229
3 144 285 216
3 144 106 285
3 216 285 175
3 216 368 202
3 143 257 255
3 164 340 143
3 164 143 216
3 175 164 216
3 283 175 285
3 216 143 368
3 45 83 259
3 83 78 368
3 259 83 368
3 83 45 46
3 259 255 44
3 259 368 143
3 44 255 43
3 259 44 45
3 143 255 259
3 164 175 340
3 144 216 202
3 271 340 300
3 271 143 340
3 178 340 282
3 271 257 143
3 222 101 272
3 178 300 340
3 300 272 101
3 300 101 271
3 283 282 175
3 271 101 371
3 257 371 43
3 257 271 371
3 43 371 42
3 257 43 255
3 371 369 42
3 371 101 369
3 369 222 69
3 42 369 41
3 222 369 101
3 272 300 178
3 340 175 282
3 247 178 282
3 109 205 349
3 330 332 343
3 310 131 181
3 160 162 315
3 288 313 287
3 288 11 12
3 363 161 288
3 363 12 13
3 161 363 199
3 363 288 12
3 288 161 313
3 186 122 252
3 313 161 186
3 122 186 352
3 264 286 122
3 223 352 347
3 347 352 186
3 186 161 347
3 206 347 199
3 161 199 347
3 264 122 352
3 363 77 199
3 252 313 186
3 77 280 199
3 77 13 14
3 280 77 90
3 199 280 206
3 90 339 280
3 90 14 15
3 339 90 193
3 90 77 14
3 280 339 153
3 223 206 68
3 223 347 206
3 68 206 153
3 352 223 268
3 153 359 180
3 153 206 280
3 180 119 353
3 153 180 68
3 339 359 153
3 68 180 353
3 339 150 359
3 363 13 77
3 68 235 223
3 227 125 207
3 125 286 264
3 207 125 264
3 315 227 318
3 207 268 374
3 268 207 264
3 373 374 209
3 227 207 318
3 264 352 268
3 318 207 374
3 155 116 160
3 116 162 160
3 160 315 318
3 373 160 318
3 357 250 155
3 155 250 116
3 373 155 160
3 138 155 373
3 318 374 373
3 129 116 250
3 374 268 235
3 116 129 137
3 225 138 209
3 138 357 155
3 235 209 374
3 225 209 235
3 151 218 105
3 225 151 138
3 353 225 235
3 119 225 353
3 268 223 235
3 138 151 357
3 215 170 105
3 170 250 357
3 105 170 357
3 108 170 215
3 253 354 215
3 218 253 105
3 354 253 326
3 253 215 105
3 357 151 105
3 250 170 258
3 151 225 114
3 373 209 138
3 68 353 235
3 238 215 354
3 180 359 355
3 287 11 288
3 15 16 193
3 193 16 319
3 193 150 339
3 319 17 367
3 17 319 16
3 367 17 18
3 193 319 168
3 168 319 367
3 355 120 189
3 350 355 150
3 355 189 180
3 355 359 150
3 168 72 350
3 120 350 377
3 350 120 355
3 168 350 150
3 150 193 168
3 166 189 120
3 72 168 367
3 180 189 119
3 72 367 71
3 293 367 18
3 367 293 71
3 72 71 85
3 293 1 19
3 1 293 18
3 293 19 71
3 71 19 20
3 377 133 304
3 133 377 85
3 304 133 198
3 304 120 377
3 85 20 21
3 85 377 72
3 85 21 133
3 71 20 85
3 133 21 22
3 377 350 72
3 166 120 304
3 114 119 212
3 114 225 119
3 119 189 212
3 312 114 212
3 166 245 121
3 166 304 245
3 297 121 141
3 166 121 212
3 166 212 189
3 312 212 121
3 65 326 253
3 65 218 312
3 326 65 251
3 65 253 218
3 297 251 65
3 297 312 121
3 237 251 297
3 297 65 312
3 218 114 312
3 100 326 251
3 141 121 245
3 218 151 114
3 245 220 141
3 220 245 198
3 220 198 23
3 344 141 220
3 22 23 198
3 23 24 220
3 304 198 245
3 344 220 24
3 281 237 351
3 344 237 141
3 351 237 344
3 237 281 251
3 351 25 26
3 25 351 344
3 281 351 156
3 344 24 25
3 156 351 26
3 141 237 297
3 22 198 133
3 354 326 142
3 193 90 15
3 251 281 100
3 81 129 258
3 194 349 81
3 81 149 194
3 149 81 258
3 379 149 317
3 194 149 379
3 250 258 129
3 194 109 349
3 329 109 263
3 329 74 229
3 263 109 197
3 154 329 263
3 345 263 197
3 197 109 194
3 345 197 379
3 263 345 214
3 194 379 197
3 214 356 263
3 149 258 108
3 378 129 81
3 317 108 303
3 108 258 170
3 303 108 238
3 334 379 317
3 303 325 348
3 325 303 238
3 348 325 331
3 317 303 334
3 354 325 238
3 298 303 348
3 214 275 296
3 345 379 334
3 275 345 334
3 275 214 345
3 275 298 323
3 298 275 334
3 278 323 298
3 275 323 296
3 334 303 298
3 296 323 376
3 323 110 376
3 317 149 108
3 238 108 215
3 201 214 296
3 272 74 177
3 272 178 74
3 177 74 154
3 111 272 177
3 154 356 309
3 154 263 356
3 328 112 309
3 154 309 177
3 329 154 74
3 112 177 309
3 69 41 369
3 222 111 69
3 69 111 112
3 41 69 40
3 69 96 40
3 96 69 112
3 328 96 112
3 40 96 39
3 111 177 112
3 309 356 89
3 222 272 111
3 230 89 267
3 328 309 89
3 267 89 201
3 89 230 328
3 267 241 230
3 211 267 201
3 376 211 201
3 292 211 376
3 356 214 201
3 241 279 230
3 96 176 39
3 96 328 176
3 328 230 176
3 39 176 38
3 38 279 291
3 279 38 176
3 176 230 279
3 38 291 37
3 279 241 291
3 267 211 221
3 89 356 201
3 201 296 376
3 298 348 278
3 205 109 329
3 331 118 76
3 100 331 142
3 76 278 348
3 76 348 331
3 76 118 284
3 118 331 100
3 302 284 118
3 294 284 302
3 354 142 325
3 76 284 140
3 110 140 159
3 140 110 278
3 110 159 292
3 110 292 376
3 284 305 140
3 140 278 76
3 97 159 305
3 140 305 159
3 294 305 284
3 127 305 294
3 118 100 95
3 331 325 142
3 302 95 228
3 95 302 118
3 228 95 156
3 314 302 228
3 27 28 228
3 27 156 26
3 27 228 156
3 100 281 95
3 314 228 28
3 127 182 342
3 294 182 127
3 342 182 30
3 97 305 127
3 29 30 182
3 29 314 28
3 29 182 314
3 314 182 294
3 342 30 31
3 294 302 314
3 326 100 142
3 213 127 342
3 126 221 103
3 221 241 267
3 103 221 292
3 221 126 241
3 103 97 200
3 103 292 159
3 157 200 336
3 103 200 126
3 159 97 103
3 126 200 157
3 132 37 291
3 241 126 132
3 37 132 36
3 132 291 241
3 132 203 36
3 203 132 157
3 203 157 232
3 36 203 35
3 126 157 132
3 200 97 213
3 211 292 221
3 336 213 196
3 232 157 336
3 213 342 196
3 336 196 311
3 196 32 311
3 32 196 31
3 311 32 33
3 97 127 213
3 336 311 232
3 35 232 34
3 35 203 232
3 34 232 152
3 152 33 2
3 152 232 311
3 152 2 34
3 311 33 152
3 336 200 213
3 31 196 342
3 323 278 110
3 156 95 281
3 337 125 227
POINT_DATA 380
SCALARS P float 1
LOOKUP_TABLE default
486558887.128105
2517661101.185055
7109768417.443681
3157015279.238495
568559486.463444
654551996.016457
747705049.804552
846716155.655203
952250874.495711
1063455223.903363
1180985050.433661
1304493610.526098
1435091315.532499
1570963359.036783
1713267991.803469
1861550589.292459
2016600312.562127
2177421418.956243
2344028174.165774
2735017987.909479
2963322057.970444
3199843884.709738
3445016065.225792
3700115709.626213
3964596389.122704
4237795439.267030
4519412980.174767
4811376119.851273
5112144327.270909
5421775601.392063
5739971988.832639
6068672998.959511
6405708296.580294
6751446394.499358
6813861267.597050
6527278983.806598
6246098621.728571
5971727367.159537
5703401247.785884
5441055532.272295
5184750757.106527
4934914350.947088
4691126237.343971
4453476653.704930
4221945853.074877
3996807080.070435
3777763927.605359
3564818057.008814
3358297171.040747
2922167245.853068
2695557101.213740
2478629369.241141
2270622459.305292
2071538305.126388
1881779198.621284
1701306144.432541
1529835138.526262
1367492322.157539
1214325855.678302
1070360153.163226
935394426.165063
809691398.526816
692903794.805247
586135006.699168
1841026736.091487
3487394815.001764
2139211811.863944
2000291671.549236
2355773560.583181
4811909219.330090
1064100887.564190
2715482842.152306
2627981669.506990
1197507961.492162
3909467676.761538
2797650808.050661
4383823641.534400
1789780786.208242
3435272048.598732
1119162721.991315
2257300957.406358
3214684735.081273
2480833899.926487
3651831364.874527
1921176367.207779
2925552056.858867
730529170.826169
2584658929.294647
2307932989.011783
4732478773.744866
1935452493.751091
1753631249.106976
2391458251.470869
2350332200.792976
2960406988.772431
4427102000.751283
5032028841.552417
5272059205.911586
3128773999.504071
720176453.121111
4099687513.485197
4175996776.843173
2540124445.307007
5254819661.584291
1261092652.458908
3136600506.282743
3012129130.669285
1423388077.065266
3353826699.078273
3476224186.944715
4581526214.400692
4570267418.785306
4774180188.635332
1240809223.640124
2924729275.753061
3064749819.120858
2815468724.461268
1307631516.371391
4373469784.412597
2737351985.004852
2834892580.978598
3319245421.017314
1864650845.791141
3013506911.542291
2635345321.634429
2127275186.390783
5564189525.474298
5330461845.674399
2184312216.032320
3011225404.175526
1095419764.285032
2539746999.404212
5846046790.931252
3152477543.132172
2888383657.747459
1818054212.250807
1780052074.120629
2851306137.013641
2768727707.079576
2112136072.059606
4658911161.503647
3608597772.439548
3924824756.031878
3808025423.810478
3249584391.826507
1522150795.963242
3094177284.758649
1629099203.464980
2339583124.439672
3389043559.525996
2337597750.303312
2939492014.467539
6616670625.611718
2197923755.658798
4098693912.214138
2789930196.877630
4471464327.052423
5862323584.558772
2934925019.098229
4951222793.698813
2628670436.390721
1710652758.110277
2654979891.362929
1719858835.172128
3575433673.795240
634101119.317048
3065612672.723282
2332807133.417322
2415280743.250636
924225427.686811
3150773090.263471
1282132547.297045
2671515699.321451
835365895.502213
3292442080.150654
3370699918.334048
5252435811.890747
4330455044.556472
3723960620.349785
1469227916.298305
2516567902.932471
2412537468.197494
5366009379.654461
2729042999.542542
3086881286.521253
1799891952.071860
1782434216.527519
1220549105.818997
3271224016.383109
2784376462.753168
1036819878.183697
1242660422.815362
1714607628.987194
2110841888.213962
3430306478.544918
1371563586.786260
5994729136.081411
3653515767.665325
3395597327.243825
1861044863.875337
5570578456.289608
4490669698.433869
3262043600.422022
6115568422.150034
1179083012.604676
3308598752.583055
2064737214.280846
2275354532.832567
1873950402.591440
2585524189.459729
1973090404.605145
4702585101.362732
3028927153.040293
5655011791.369238
4063677658.100489
3332433986.788774
3458482998.288876
2588323609.430301
3119929200.047569
1137062336.340582
3648297026.449747
5137674513.119350
4371428214.571768
2190779469.705287
1994151884.042296
2749554541.926319
2702402692.403663
2301736350.645136
4761629784.553026
3514074159.128345
5182242234.598596
2451852016.126549
6320456356.795320
2031798893.962016
1117711792.033318
2413999696.094437
1322120093.692711
3872890268.464432
3527690262.985079
2970974591.696660
1530356152.164013
5399273000.964216
947450904.756953
2692806338.195429
2213540940.335938
3347150323.152430
1832921437.935590
3335406848.434586
1508495598.931468
2163279439.406778
2980722993.355399
3832876202.676614
1651033772.661762
3322128641.994581
1486182545.671171
4036759821.751717
1413708630.842621
4213313874.976380
3180251120.537335
3845701250.742476
1717299340.090834
2737879495.887845
2018610416.267840
3874789354.391849
2104797637.872350
1392742984.823756
1008138419.107664
4937744403.380075
2257051967.400848
2289420455.479122
3465246616.408009
3984014514.897426
4136097400.097395
2090766629.461902
1671526536.016285
4027823240.247387
2186795376.699863
904508964.817521
4295182917.117890
5455861762.494040
2007641841.480043
4146079173.514247
3536838802.030890
3160204393.760085
4663635250.088078
3178490473.749106
1955877810.153354
1367814254.592040
1502768583.728231
1931905716.451948
1421171509.441038
5662185329.603519
4862052769.478537
2534550932.620111
5013776479.767845
1155561605.696323
4257519128.186647
3572751389.062404
3979068274.481680
2824491509.765320
3944453304.645936
1548973817.790266
4713263395.536978
3741898234.196244
3100557317.074005
4968144224.349679
1652728851.533983
1018333130.320008
2057124159.882250
4529495343.045913
2238274356.261214
6305016785.728629
3258364742.851074
1568669813.075239
5058788295.821742
2475298672.757877
2403300349.120051
3569094178.489928
2451630564.081782
2237074577.152785
1294092543.128612
1589687132.698362
808049758.396406
4225296025.245680
2805428934.821092
3759422900.426308
3707811083.528141
998585884.179668
4980535461.136626
3692039117.494050
2745276543.970224
4138557677.547762
2995279517.980154
1352926751.638149
3795231843.107562
1951154123.062601
5984627371.554877
2158322602.599320
2554421915.412299
2145418905.117522
3757491422.145604
1602290414.461751
5681285933.662788
2872521203.323305
3913218737.440413
3837708536.702547
1433412974.645793
1924808673.733704
4014205674.842211
3257592715.513962
2613325463.555123
4187727739.090459
2026049011.574970
2572692993.760703
3531952147.247521
2555153279.072462
4292582111.762735
2957065452.347398
906008721.991309
2328057486.922441
3131874986.163087
2505226119.849817
1878042854.662468
1642508670.985194
2489801534.157014
2765067464.300858
1567596327.705874
2416360744.914349
3618756355.074118
4600944972.153934
2897092487.121898
4398702746.421348
818603698.768113
2606972568.891709
2427106126.628009
1691091586.799045
4466542321.806802
2859404000.283657
3045524594.369918
3610472401.275763
