# vtk DataFile Version 2.0
patchtest_tri3_mix
ASCII
DATASET POLYDATA
POINTS 360 float
0.000000 0.000000 0.000000
1.000000 0.000000 0.000000
1.000000 1.000000 0.000000
0.000000 1.000000 0.000000
0.062500 0.000000 0.000000
0.125000 0.000000 0.000000
0.187500 0.000000 0.000000
0.250000 0.000000 0.000000
0.312500 0.000000 0.000000
0.375000 0.000000 0.000000
0.437500 0.000000 0.000000
0.500000 0.000000 0.000000
0.562500 0.000000 0.000000
0.625000 0.000000 0.000000
0.687500 0.000000 0.000000
0.750000 0.000000 0.000000
0.812500 0.000000 0.000000
0.875000 0.000000 0.000000
0.937500 0.000000 0.000000
1.000000 0.062500 0.000000
1.000000 0.125000 0.000000
1.000000 0.187500 0.000000
1.000000 0.250000 0.000000
1.000000 0.312500 0.000000
1.000000 0.375000 0.000000
1.000000 0.437500 0.000000
1.000000 0.500000 0.000000
1.000000 0.562500 0.000000
1.000000 0.625000 0.000000
1.000000 0.687500 0.000000
1.000000 0.750000 0.000000
1.000000 0.812500 0.000000
1.000000 0.875000 0.000000
1.000000 0.937500 0.000000
0.937500 1.000000 0.000000
0.875000 1.000000 0.000000
0.812500 1.000000 0.000000
0.750000 1.000000 0.000000
0.687500 1.000000 0.000000
0.625000 1.000000 0.000000
0.562500 1.000000 0.000000
0.500000 1.000000 0.000000
0.437500 1.000000 0.000000
0.375000 1.000000 0.000000
0.312500 1.000000 0.000000
0.250000 1.000000 0.000000
0.187500 1.000000 0.000000
0.125000 1.000000 0.000000
0.062500 1.000000 0.000000
0.000000 0.937500 0.000000
0.000000 0.875000 0.000000
0.000000 0.812500 0.000000
0.000000 0.750000 0.000000
0.000000 0.687500 0.000000
0.000000 0.625000 0.000000
0.000000 0.562500 0.000000
0.000000 0.500000 0.000000
0.000000 0.437500 0.000000
0.000000 0.375000 0.000000
0.000000 0.312500 0.000000
0.000000 0.250000 0.000000
0.000000 0.187500 0.000000
0.000000 0.125000 0.000000
0.000000 0.062500 0.000000
0.846362 0.470639 0.000000
0.468722 0.947525 0.000000
0.163611 0.947062 0.000000
0.739860 0.457295 0.000000
0.531331 0.782524 0.000000
0.372077 0.157240 0.000000
0.053196 0.841159 0.000000
0.106328 0.680980 0.000000
0.928154 0.048025 0.000000
0.948346 0.532049 0.000000
0.159521 0.102323 0.000000
0.104566 0.469501 0.000000
0.895441 0.881289 0.000000
0.640378 0.839362 0.000000
0.843553 0.844607 0.000000
0.896071 0.818535 0.000000
0.896303 0.375861 0.000000
0.105658 0.734412 0.000000
0.157974 0.469212 0.000000
0.744067 0.727365 0.000000
0.476257 0.841883 0.000000
0.439042 0.895548 0.000000
0.106738 0.627619 0.000000
0.897587 0.564240 0.000000
0.406108 0.948112 0.000000
0.105115 0.303774 0.000000
0.896229 0.314516 0.000000
0.264406 0.215486 0.000000
0.265845 0.892389 0.000000
0.948455 0.952601 0.000000
0.266370 0.679267 0.000000
0.106738 0.058355 0.000000
0.532054 0.604421 0.000000
0.687711 0.515829 0.000000
0.947759 0.841822 0.000000
0.316667 0.265461 0.000000
0.425860 0.418912 0.000000
0.053061 0.100908 0.000000
0.211801 0.318799 0.000000
0.265261 0.160975 0.000000
0.692331 0.095602 0.000000
0.584785 0.790128 0.000000
0.105018 0.181483 0.000000
0.212418 0.837035 0.000000
0.633250 0.307019 0.000000
0.318124 0.484566 0.000000
0.422022 0.842551 0.000000
0.685887 0.353635 0.000000
0.638270 0.783283 0.000000
0.052883 0.626950 0.000000
0.866260 0.145058 0.000000
0.212008 0.781613 0.000000
0.315852 0.837143 0.000000
0.051931 0.949942 0.000000
0.105553 0.119247 0.000000
0.052544 0.280756 0.000000
0.580640 0.323537 0.000000
0.948114 0.594948 0.000000
0.426045 0.157852 0.000000
0.479050 0.735881 0.000000
0.744985 0.610504 0.000000
0.344315 0.052316 0.000000
0.423461 0.262417 0.000000
0.052188 0.462810 0.000000
0.844047 0.292692 0.000000
0.826287 0.184649 0.000000
0.479587 0.681954 0.000000
0.105215 0.522089 0.000000
0.791398 0.400327 0.000000
0.742222 0.666945 0.000000
0.841954 0.899937 0.000000
0.763198 0.188453 0.000000
0.760137 0.093827 0.000000
0.848508 0.236926 0.000000
0.222393 0.053312 0.000000
0.891978 0.193641 0.000000
0.836668 0.949638 0.000000
0.212559 0.724984 0.000000
0.796038 0.568606 0.000000
0.264828 0.506068 0.000000
0.159277 0.841022 0.000000
0.791726 0.293250 0.000000
0.370936 0.368686 0.000000
0.104787 0.243218 0.000000
0.477216 0.210482 0.000000
0.478293 0.569569 0.000000
0.531119 0.053237 0.000000
0.946886 0.781404 0.000000
0.638766 0.724590 0.000000
0.741282 0.508503 0.000000
0.691218 0.633117 0.000000
0.370859 0.209943 0.000000
0.844479 0.722090 0.000000
0.282520 0.053206 0.000000
0.052740 0.729557 0.000000
0.689622 0.573652 0.000000
0.844585 0.785660 0.000000
0.264804 0.784926 0.000000
0.793984 0.138832 0.000000
0.898257 0.500744 0.000000
0.584026 0.568794 0.000000
0.158297 0.265924 0.000000
0.583429 0.207479 0.000000
0.158581 0.156475 0.000000
0.440177 0.105341 0.000000
0.266590 0.107162 0.000000
0.586642 0.684297 0.000000
0.592823 0.053008 0.000000
0.537339 0.164923 0.000000
0.158506 0.521236 0.000000
0.105919 0.574636 0.000000
0.322580 0.105546 0.000000
0.478123 0.789107 0.000000
0.105690 0.787834 0.000000
0.052554 0.219129 0.000000
0.716116 0.949013 0.000000
0.579826 0.446535 0.000000
0.212244 0.891757 0.000000
0.500297 0.894363 0.000000
0.106501 0.894358 0.000000
0.213123 0.605636 0.000000
0.211220 0.265661 0.000000
0.790558 0.884597 0.000000
0.948399 0.468892 0.000000
0.532467 0.724759 0.000000
0.900143 0.255502 0.000000
0.791685 0.346926 0.000000
0.528274 0.415621 0.000000
0.318229 0.372631 0.000000
0.105108 0.416350 0.000000
0.318311 0.604913 0.000000
0.158533 0.211410 0.000000
0.370978 0.789897 0.000000
0.897903 0.691880 0.000000
0.425901 0.736919 0.000000
0.159811 0.629560 0.000000
0.319050 0.427474 0.000000
0.282191 0.946432 0.000000
0.052848 0.676772 0.000000
0.426473 0.684065 0.000000
0.635625 0.540530 0.000000
0.158930 0.788169 0.000000
0.737744 0.243873 0.000000
0.728245 0.139952 0.000000
0.164086 0.050809 0.000000
0.425153 0.473687 0.000000
0.529349 0.479794 0.000000
0.423695 0.364697 0.000000
0.947380 0.899504 0.000000
0.211951 0.159361 0.000000
0.052576 0.403539 0.000000
0.380680 0.104645 0.000000
0.526775 0.289404 0.000000
0.158863 0.419849 0.000000
0.481478 0.158971 0.000000
0.105578 0.361526 0.000000
0.212117 0.484224 0.000000
0.691275 0.759662 0.000000
0.844108 0.409729 0.000000
0.657509 0.944134 0.000000
0.939203 0.155366 0.000000
0.317457 0.543848 0.000000
0.691759 0.821224 0.000000
0.319279 0.665525 0.000000
0.633685 0.479702 0.000000
0.211466 0.212528 0.000000
0.475205 0.324206 0.000000
0.657596 0.050629 0.000000
0.105950 0.841097 0.000000
0.424237 0.527515 0.000000
0.424931 0.579711 0.000000
0.947548 0.217843 0.000000
0.052411 0.520328 0.000000
0.368571 0.842303 0.000000
0.424241 0.210839 0.000000
0.829677 0.099173 0.000000
0.632344 0.420542 0.000000
0.106803 0.947244 0.000000
0.479286 0.626728 0.000000
0.742331 0.557969 0.000000
0.424648 0.789801 0.000000
0.735326 0.901243 0.000000
0.212660 0.106216 0.000000
0.897289 0.437645 0.000000
0.528338 0.351157 0.000000
0.406724 0.052214 0.000000
0.317874 0.781672 0.000000
0.561249 0.107511 0.000000
0.593817 0.947554 0.000000
0.586089 0.841206 0.000000
0.158889 0.735597 0.000000
0.847497 0.532824 0.000000
0.422168 0.312339 0.000000
0.948354 0.720454 0.000000
0.897297 0.627731 0.000000
0.265199 0.566279 0.000000
0.371234 0.525236 0.000000
0.052650 0.342599 0.000000
0.532999 0.665421 0.000000
0.053328 0.896411 0.000000
0.369320 0.315871 0.000000
0.426222 0.631607 0.000000
0.701790 0.192479 0.000000
0.318840 0.724793 0.000000
0.372081 0.472721 0.000000
0.685708 0.406855 0.000000
0.052659 0.575428 0.000000
0.582196 0.508120 0.000000
0.469079 0.053000 0.000000
0.847564 0.660296 0.000000
0.949892 0.282092 0.000000
0.321184 0.892422 0.000000
0.951504 0.097850 0.000000
0.738686 0.404044 0.000000
0.725067 0.049599 0.000000
0.792818 0.454502 0.000000
0.212755 0.372512 0.000000
0.794509 0.050818 0.000000
0.629141 0.254090 0.000000
0.477799 0.385081 0.000000
0.317457 0.211995 0.000000
0.894212 0.942287 0.000000
0.372459 0.737967 0.000000
0.316794 0.318957 0.000000
0.158943 0.319455 0.000000
0.264393 0.838701 0.000000
0.686711 0.460500 0.000000
0.847025 0.596294 0.000000
0.264022 0.270868 0.000000
0.641329 0.198392 0.000000
0.318512 0.158615 0.000000
0.221881 0.945951 0.000000
0.948016 0.657709 0.000000
0.265707 0.385866 0.000000
0.478532 0.448148 0.000000
0.682898 0.247735 0.000000
0.264599 0.327588 0.000000
0.212416 0.544380 0.000000
0.213396 0.666496 0.000000
0.599792 0.152179 0.000000
0.779735 0.944531 0.000000
0.626242 0.100236 0.000000
0.796891 0.630777 0.000000
0.795847 0.757481 0.000000
0.691415 0.696742 0.000000
0.793849 0.692348 0.000000
0.528390 0.225810 0.000000
0.530786 0.542570 0.000000
0.682002 0.885881 0.000000
0.369681 0.262712 0.000000
0.585270 0.738691 0.000000
0.053058 0.784912 0.000000
0.862257 0.052028 0.000000
0.265495 0.732137 0.000000
0.895140 0.754531 0.000000
0.663508 0.145032 0.000000
0.343447 0.947041 0.000000
0.738795 0.350406 0.000000
0.052823 0.158755 0.000000
0.576767 0.265806 0.000000
0.373111 0.685785 0.000000
0.265920 0.624307 0.000000
0.685957 0.300490 0.000000
0.794632 0.510340 0.000000
0.560570 0.894209 0.000000
0.159417 0.370705 0.000000
0.791868 0.822630 0.000000
0.531004 0.838389 0.000000
0.948035 0.343761 0.000000
0.896055 0.102899 0.000000
0.738814 0.296832 0.000000
0.477779 0.510281 0.000000
0.637623 0.601786 0.000000
0.621498 0.894585 0.000000
0.372564 0.420798 0.000000
0.738140 0.847596 0.000000
0.158987 0.575372 0.000000
0.793429 0.239296 0.000000
0.579314 0.384619 0.000000
0.501179 0.106960 0.000000
0.744145 0.787489 0.000000
0.632687 0.362890 0.000000
0.585632 0.627697 0.000000
0.948542 0.406183 0.000000
0.159632 0.894334 0.000000
0.159399 0.682932 0.000000
0.052139 0.047615 0.000000
0.531194 0.947515 0.000000
0.371429 0.578721 0.000000
0.379513 0.895535 0.000000
0.639998 0.663170 0.000000
0.265666 0.445506 0.000000
0.212692 0.427330 0.000000
0.372915 0.632563 0.000000
0.476451 0.265874 0.000000
0.843722 0.350584 0.000000
POLYGONS 654 2616
3 63 0 350
3 118 322 101
3 4 350 0
3 350 95 101
3 350 101 63
3 63 101 62
3 61 322 178
3 322 61 62
3 61 178 60
3 106 147 178
3 322 62 101
3 147 106 195
3 106 178 322
3 322 118 106
3 178 147 119
3 350 4 95
3 95 5 208
3 5 95 4
3 246 74 208
3 208 74 95
3 6 208 5
3 138 246 208
3 95 74 118
3 167 195 106
3 118 74 167
3 195 167 213
3 167 106 118
3 185 229 91
3 213 229 195
3 246 213 167
3 213 103 229
3 74 246 167
3 147 195 165
3 208 6 138
3 95 118 101
3 165 195 229
3 59 60 119
3 59 261 58
3 261 59 119
3 219 214 261
3 58 261 214
3 178 119 60
3 57 127 56
3 127 57 214
3 236 56 127
3 193 75 127
3 219 193 214
3 75 193 217
3 193 127 214
3 57 58 214
3 75 236 127
3 261 119 89
3 219 89 288
3 89 119 147
3 288 89 165
3 89 219 261
3 288 185 102
3 185 288 165
3 102 185 292
3 219 288 329
3 165 89 147
3 329 288 102
3 217 82 75
3 193 329 217
3 217 329 280
3 82 217 356
3 82 356 220
3 356 217 280
3 356 280 297
3 220 356 355
3 329 102 280
3 75 82 131
3 102 300 280
3 193 219 329
3 229 185 165
3 82 220 173
3 213 246 169
3 138 7 157
3 7 138 6
3 157 8 125
3 8 157 7
3 125 8 9
3 157 125 175
3 138 157 169
3 284 91 103
3 91 229 103
3 103 213 169
3 294 103 169
3 69 294 175
3 294 284 103
3 175 294 169
3 284 294 155
3 169 157 175
3 99 91 284
3 215 175 125
3 91 292 185
3 215 69 175
3 125 249 215
3 249 10 272
3 10 249 9
3 272 10 11
3 215 249 168
3 168 249 272
3 155 69 238
3 155 294 69
3 238 69 122
3 284 155 313
3 148 122 218
3 122 69 215
3 168 218 122
3 122 148 238
3 215 168 122
3 238 126 155
3 168 272 343
3 9 249 125
3 126 238 148
3 292 99 287
3 99 292 91
3 99 264 287
3 264 99 313
3 264 313 256
3 192 287 146
3 99 284 313
3 292 287 300
3 355 356 297
3 297 300 192
3 355 297 200
3 300 297 280
3 355 200 109
3 200 297 192
3 338 200 192
3 268 109 200
3 300 287 192
3 220 355 143
3 264 146 287
3 102 292 300
3 256 211 264
3 256 313 126
3 256 126 358
3 264 211 146
3 256 230 211
3 230 256 358
3 283 230 248
3 211 230 283
3 126 148 358
3 146 211 100
3 268 338 209
3 268 200 338
3 209 338 100
3 109 268 260
3 100 283 298
3 100 338 146
3 358 216 230
3 100 298 209
3 211 283 100
3 209 298 335
3 283 191 298
3 338 192 146
3 313 155 126
3 260 268 209
3 310 358 148
3 138 169 246
3 109 143 355
3 55 236 270
3 236 55 56
3 270 131 174
3 131 270 236
3 174 131 173
3 270 174 113
3 82 173 131
3 55 270 54
3 53 202 158
3 202 53 54
3 53 158 52
3 202 113 86
3 113 202 54
3 71 158 202
3 158 71 81
3 54 270 113
3 158 81 315
3 86 113 174
3 174 340 86
3 340 174 173
3 340 301 184
3 301 340 173
3 184 301 259
3 86 340 199
3 220 301 173
3 199 340 184
3 349 254 81
3 349 71 199
3 254 349 141
3 349 81 71
3 302 141 349
3 302 199 184
3 317 115 141
3 302 349 199
3 71 86 199
3 254 141 115
3 184 325 302
3 86 71 202
3 236 75 131
3 81 254 177
3 51 52 315
3 315 177 70
3 315 52 158
3 263 70 183
3 315 70 51
3 177 315 81
3 51 70 50
3 49 50 263
3 3 49 117
3 117 263 241
3 263 117 49
3 48 117 241
3 117 48 3
3 50 70 263
3 177 232 70
3 232 205 144
3 205 232 177
3 144 205 107
3 183 232 144
3 107 181 144
3 161 107 115
3 289 181 107
3 107 205 115
3 254 205 177
3 348 144 181
3 241 66 47
3 348 241 183
3 241 47 48
3 241 263 183
3 181 66 348
3 46 66 295
3 66 46 47
3 348 66 241
3 183 144 348
3 66 181 295
3 183 70 232
3 254 115 205
3 94 141 302
3 259 325 184
3 259 143 225
3 225 260 352
3 225 143 109
3 352 260 233
3 259 225 194
3 260 225 109
3 194 225 352
3 141 94 317
3 94 302 325
3 94 325 227
3 317 94 267
3 227 267 94
3 357 227 194
3 324 267 227
3 227 325 194
3 325 259 194
3 250 317 267
3 357 194 352
3 161 115 317
3 234 357 352
3 234 233 149
3 265 234 242
3 149 233 335
3 311 149 335
3 130 203 265
3 260 209 233
3 234 265 357
3 267 324 286
3 324 227 357
3 324 357 203
3 286 324 198
3 198 203 123
3 203 198 324
3 130 123 203
3 286 198 244
3 357 265 203
3 176 198 123
3 149 242 234
3 234 352 233
3 335 233 209
3 250 267 286
3 289 161 116
3 92 181 289
3 289 116 92
3 116 161 250
3 237 275 116
3 92 116 275
3 161 317 250
3 92 295 181
3 295 201 45
3 295 92 201
3 45 201 44
3 295 45 46
3 201 320 44
3 320 201 275
3 353 320 275
3 44 320 43
3 92 275 201
3 116 250 196
3 107 161 289
3 237 196 110
3 196 237 116
3 110 196 244
3 237 110 353
3 244 176 84
3 196 250 286
3 84 176 331
3 244 84 110
3 244 196 286
3 110 84 85
3 320 88 43
3 320 353 88
3 88 353 85
3 43 88 42
3 88 65 42
3 65 88 85
3 182 65 85
3 42 65 41
3 353 110 85
3 85 84 182
3 353 275 237
3 198 176 244
3 123 68 176
3 259 301 143
3 301 220 143
3 210 335 298
3 343 218 168
3 272 150 343
3 150 12 171
3 12 150 11
3 171 12 13
3 343 150 251
3 251 150 171
3 172 310 148
3 218 343 172
3 310 172 166
3 310 216 358
3 303 166 172
3 305 303 251
3 166 303 293
3 303 172 251
3 343 251 172
3 323 310 166
3 251 171 305
3 272 11 150
3 231 305 171
3 231 13 14
3 14 15 278
3 136 104 278
3 14 278 231
3 231 278 104
3 319 293 303
3 319 305 104
3 293 319 266
3 319 303 305
3 207 266 319
3 136 207 104
3 206 266 135
3 207 319 104
3 305 231 104
3 282 166 293
3 266 207 135
3 231 171 13
3 299 293 266
3 191 283 248
3 248 216 120
3 120 323 108
3 282 323 166
3 345 120 108
3 323 120 216
3 216 310 323
3 248 120 342
3 210 191 180
3 342 191 248
3 180 191 342
3 210 298 191
3 342 240 180
3 240 342 345
3 240 345 269
3 271 210 180
3 342 120 345
3 228 180 240
3 108 323 282
3 230 216 248
3 282 326 108
3 326 282 299
3 326 299 334
3 111 108 326
3 334 321 326
3 145 334 206
3 321 334 190
3 334 299 206
3 299 266 206
3 111 326 321
3 290 240 269
3 345 111 269
3 269 111 277
3 240 290 228
3 269 67 290
3 67 269 277
3 279 67 277
3 228 290 97
3 111 321 277
3 67 153 290
3 277 321 132
3 345 108 111
3 282 293 299
3 228 271 180
3 281 278 15
3 210 311 335
3 239 136 281
3 136 278 281
3 16 17 316
3 333 239 316
3 16 316 281
3 15 16 281
3 239 281 316
3 135 162 129
3 135 207 162
3 129 162 114
3 341 135 129
3 129 139 137
3 333 114 239
3 139 129 114
3 114 162 239
3 162 136 239
3 341 129 137
3 316 17 72
3 162 207 136
3 72 18 1
3 72 333 316
3 72 19 276
3 19 72 1
3 276 19 20
3 72 276 333
3 114 224 139
3 224 114 333
3 333 276 224
3 139 224 235
3 224 21 235
3 21 224 20
3 235 21 22
3 276 20 224
3 137 139 189
3 72 17 18
3 189 139 235
3 190 145 128
3 132 321 190
3 128 189 90
3 128 341 137
3 190 128 359
3 341 128 145
3 206 341 145
3 359 128 90
3 279 132 222
3 359 132 190
3 222 132 359
3 279 277 132
3 64 222 247
3 80 222 359
3 247 222 80
3 222 64 279
3 359 90 80
3 327 279 64
3 90 332 80
3 334 145 190
3 274 332 90
3 189 235 274
3 332 274 23
3 347 80 332
3 22 23 274
3 23 24 332
3 137 189 128
3 332 24 347
3 247 187 163
3 187 247 347
3 73 163 187
3 247 163 64
3 25 26 187
3 25 347 24
3 25 187 347
3 80 347 247
3 73 187 26
3 90 189 274
3 22 274 235
3 279 153 67
3 341 206 135
3 64 163 255
3 96 242 149
3 96 311 164
3 271 204 164
3 271 228 204
3 96 164 346
3 271 164 311
3 311 210 271
3 336 346 164
3 130 262 188
3 262 130 242
3 188 68 123
3 242 130 265
3 262 346 170
3 262 242 96
3 354 170 346
3 262 170 188
3 96 346 262
3 314 188 170
3 336 164 204
3 149 311 96
3 204 159 336
3 159 204 97
3 97 243 159
3 243 97 153
3 243 153 327
3 336 159 154
3 228 97 204
3 124 154 159
3 308 152 354
3 152 170 354
3 154 354 336
3 308 354 154
3 308 133 83
3 133 308 154
3 309 83 133
3 152 308 221
3 133 154 124
3 314 170 152
3 243 124 159
3 354 346 336
3 290 153 97
3 83 221 308
3 331 68 105
3 331 182 84
3 253 105 77
3 314 105 68
3 337 328 253
3 105 253 331
3 68 188 314
3 331 253 328
3 65 351 41
3 65 182 351
3 351 182 328
3 41 351 40
3 252 40 351
3 337 252 328
3 40 252 39
3 252 351 328
3 182 331 328
3 112 105 314
3 176 68 331
3 77 226 312
3 226 77 112
3 77 312 337
3 77 337 253
3 226 344 339
3 221 344 226
3 226 339 312
3 221 226 112
3 314 152 112
3 312 339 245
3 223 39 252
3 337 312 223
3 39 223 38
3 223 252 337
3 223 179 38
3 223 312 179
3 179 245 304
3 38 179 37
3 245 179 312
3 339 186 245
3 77 105 112
3 152 221 112
3 221 83 344
3 130 188 123
3 243 142 124
3 142 243 327
3 142 255 291
3 255 142 327
3 258 273 291
3 124 142 306
3 64 255 327
3 306 142 291
3 307 309 156
3 309 133 306
3 273 309 306
3 307 83 309
3 318 156 197
3 273 156 309
3 273 197 156
3 307 156 160
3 306 291 273
3 160 156 318
3 291 255 87
3 83 307 344
3 87 121 258
3 121 87 73
3 27 28 121
3 27 73 26
3 27 121 73
3 255 163 87
3 121 28 296
3 258 296 197
3 258 121 296
3 197 296 257
3 258 197 273
3 257 29 30
3 29 257 296
3 257 151 318
3 28 29 296
3 257 318 197
3 87 258 291
3 73 87 163
3 151 257 30
3 186 304 245
3 339 330 186
3 330 160 78
3 330 344 307
3 76 134 78
3 330 78 186
3 160 330 307
3 186 78 134
3 37 304 36
3 37 179 304
3 36 304 140
3 35 140 285
3 134 140 304
3 134 285 140
3 140 35 36
3 304 186 134
3 78 160 79
3 344 330 339
3 98 76 79
3 76 285 134
3 79 160 318
3 98 79 151
3 98 31 32
3 31 98 151
3 76 98 212
3 151 30 31
3 212 98 32
3 34 285 93
3 212 285 76
3 93 285 212
3 285 34 35
3 93 33 2
3 33 93 212
3 93 2 34
3 212 32 33
3 76 78 79
3 151 79 318
3 133 124 306
3 153 279 327
3 148 218 172
POINT_DATA 360
SCALARS P float 1
LOOKUP_TABLE default
489032710.914532
2516132875.144444
7107825705.440066
3157402952.853901
567680411.395070
654609086.068989
747639111.865027
846696614.154636
952193852.844572
1063503481.383892
1180954359.672656
1304744018.718529
1435020325.004726
1571096452.676234
1712697807.213049
1861511391.775186
2016506510.546679
2176080774.001212
2345108775.074389
2735173094.887650
2962801138.415814
3199457845.057474
3445421265.148438
3700164577.913806
3964425436.658950
4237725297.561709
4519404661.140288
4811291463.969829
5111956304.039194
5421652343.874434
5740156441.548364
6068433013.729992
6405603981.113132
6751835609.181682
6814424366.367343
6527010339.362276
6246459341.231404
5971682186.195152
5703336863.562068
5440972627.571160
5184662736.445092
4934734306.772148
4691294541.010839
4453422612.070171
4221921685.496087
3996724392.206106
3777712926.917322
3564660519.250950
3357906173.489953
2921756468.722642
2695480870.673911
2478479469.575596
2270439322.285110
2071509997.568274
1881727076.418344
1701230938.695396
1529783445.452424
1367384840.624723
1214271625.069783
1070484498.509964
935258156.605436
809593388.658561
693183620.643743
585288767.531693
3832397026.780260
4566359819.767989
3478572733.582519
3417090888.858012
4057517209.889441
1434980044.881397
2730741757.386757
2330906607.117016
2478769267.502532
4471886695.582413
902043609.098637
1681845626.384631
5976740186.783505
4720350347.331882
5564732589.917519
5652546268.158449
3609178614.485796
2508619775.558155
1806499356.406779
4596342390.808677
4118811171.498512
4220484781.375989
2159405723.757115
4427862918.432348
4334014252.356354
1251246715.628213
3361568576.877339
1357180785.257961
3598432273.232870
6599187687.335537
2779756434.131445
731812535.501022
3321964226.274209
3479544209.880045
5995615504.402454
1601057716.992661
2334628282.642277
728656698.427017
1512035842.332367
1225442852.814621
2004962499.666457
4285180115.492375
973346990.545978
3202816550.731188
2533291754.003629
2259035167.622294
3928232317.825082
2851750770.343346
4453192035.427114
2018922146.325758
2638265941.942369
2990912837.276696
3540989110.258822
3129307053.933987
846520825.009469
1096170159.610131
2441868979.216208
4762323995.318473
1553934833.098858
3676699860.750912
4074338745.044339
1123830320.842946
1841483424.587845
1545295272.404469
3110232476.832301
2660503337.574863
3458580675.271008
1833849424.910864
3359636749.124519
4313868699.435649
5843483752.814293
2493974612.198936
2174055519.047109
2915330849.299942
908042880.746556
2887460431.671190
6082876343.557210
2784616792.130551
4074958097.195424
2187085091.899677
3050946278.546530
2950184329.835589
2030403607.808900
1108545064.893258
1819308589.448458
3017797031.979353
1506071041.565039
5676899781.136604
4191356178.224316
3629606583.252851
3980735004.825109
1571662876.052449
4961787727.614838
1012481678.827854
2345748327.775066
3722987272.756518
5272908286.818868
3168183278.020692
2412376841.964498
4146130099.572763
3350220543.012367
1265677538.693029
2073595000.366962
1014674730.631457
1445940401.236298
1102844932.784410
3831640624.967867
1642732809.103938
1830758531.713669
1961926532.372497
1992512044.794075
1206154498.836836
3897219779.079980
2694870033.665516
961636340.015484
5562492505.184417
2872086856.934557
3417444548.382532
4441654229.479955
3088381324.679503
2372737135.366580
1373140692.752831
5546325007.218363
4188282940.284946
3813967150.039805
3144563845.673024
3152542340.261522
2609680387.449143
1910841144.940997
1537505734.009779
2667104822.562904
1137469289.240296
3533351323.168471
5028216476.576613
3501881461.001727
2306736780.858494
2080068414.519861
3880461060.982168
2174676355.753640
3293319507.259427
3406943034.777949
2853743503.077755
2612747345.583385
2237803471.638260
807192911.241003
2516782530.606666
2841457902.580506
2153751718.621580
6303093901.115174
1119068635.886858
1391147339.682177
1319948579.349181
2184335152.410407
1668208806.506511
1682400899.982776
1395374797.691320
1983551151.430696
4544586165.679299
3571483402.363715
5294766165.459020
2889952712.978656
2453613012.125720
4834698507.891088
2887963408.436644
3162488161.071595
1242610023.184404
2159744573.835527
1787285161.350251
2887902732.434998
2701928785.990338
2892487877.005604
3150197033.168242
1703917736.615199
3741138264.997976
1695328323.074796
2377579752.599157
2935361677.837287
3293540996.945205
3239364066.153015
3839627013.747381
3714659902.224830
5400786087.034686
1002509835.868721
3870617443.879144
2390096405.036249
1244448773.893263
3325552488.468036
1722759241.948220
5054238508.936138
4521788897.265450
2665030412.078269
4104145789.970749
1987348761.526230
5373540835.820043
4720177837.035920
2384504803.047729
2541392483.912343
1240283495.530726
3569541059.255597
2932125950.582604
1867337206.207614
3090161673.647300
2337718186.333340
3108218975.231254
2366172834.868285
3048484915.547997
1863312906.750598
3109002996.429324
1373271909.126838
4680506185.848309
3408662503.113058
3787587794.812980
2719662789.841988
3204244824.407728
1948403820.238636
3582328925.381043
1660017089.354715
2127593386.464236
2343579672.906443
2364287922.167885
1460215499.066591
6297510179.546502
3330516585.324781
1750743738.393470
1400222823.981091
3377074702.423736
3257388177.481668
4384265057.351659
1499008889.644501
2195053246.747928
1326561086.431175
3669941964.097898
5062313698.538421
1822213189.495645
2580464341.808527
2470677169.693973
1653847850.837179
2171394605.918653
2580197755.589919
1945616145.649614
5808765100.392010
1856130587.540940
4353916815.997119
4939059149.468137
4260274541.977854
4624055770.535275
1990242416.975951
3079208570.223413
5107207387.917638
1714779406.297018
4060084133.035224
2533251416.855184
2311631327.073647
2970669848.760172
5324477271.820257
2084932641.436927
4100619841.219948
3000796039.040166
838562063.732588
2240903503.303025
3130073246.251639
2583935437.329297
2661506920.821332
3819937344.927728
4669556738.591806
1535232026.615713
5240821160.675855
4303107225.333542
3652422560.951013
2575547852.371994
2803929804.054163
2798020500.376549
3662026887.108206
4908739131.574104
2198140125.820822
5145970617.362042
2130267843.968814
2758955055.043765
2648353630.083678
1583675639.063275
4879484816.881373
2727196961.243318
3592666618.500334
3915783334.551720
3256698709.646674
2484038507.430222
632931495.965577
4806968336.397156
2729263241.430132
4005688915.517950
3928350157.978363
1999978385.115345
1815763914.427505
2929304585.527038
1981995284.506605
3333440569.726882
