# vtk DataFile Version 2.0
patchtest_tri3_mix
ASCII
DATASET POLYDATA
POINTS 1500 float
0.000000 -6.000000 0.000000
48.000000 -6.000000 0.000000
48.000000 6.000000 0.000000
0.000000 6.000000 0.000000
0.631579 -6.000000 0.000000
1.263158 -6.000000 0.000000
1.894737 -6.000000 0.000000
2.526316 -6.000000 0.000000
3.157895 -6.000000 0.000000
3.789474 -6.000000 0.000000
4.421053 -6.000000 0.000000
5.052632 -6.000000 0.000000
5.684211 -6.000000 0.000000
6.315789 -6.000000 0.000000
6.947368 -6.000000 0.000000
7.578947 -6.000000 0.000000
8.210526 -6.000000 0.000000
8.842105 -6.000000 0.000000
9.473684 -6.000000 0.000000
10.105263 -6.000000 0.000000
10.736842 -6.000000 0.000000
11.368421 -6.000000 0.000000
12.000000 -6.000000 0.000000
12.631579 -6.000000 0.000000
13.263158 -6.000000 0.000000
13.894737 -6.000000 0.000000
14.526316 -6.000000 0.000000
15.157895 -6.000000 0.000000
15.789474 -6.000000 0.000000
16.421053 -6.000000 0.000000
17.052632 -6.000000 0.000000
17.684211 -6.000000 0.000000
18.315789 -6.000000 0.000000
18.947368 -6.000000 0.000000
19.578947 -6.000000 0.000000
20.210526 -6.000000 0.000000
20.842105 -6.000000 0.000000
21.473684 -6.000000 0.000000
22.105263 -6.000000 0.000000
22.736842 -6.000000 0.000000
23.368421 -6.000000 0.000000
24.000000 -6.000000 0.000000
24.631579 -6.000000 0.000000
25.263158 -6.000000 0.000000
25.894737 -6.000000 0.000000
26.526316 -6.000000 0.000000
27.157895 -6.000000 0.000000
27.789474 -6.000000 0.000000
28.421053 -6.000000 0.000000
29.052632 -6.000000 0.000000
29.684211 -6.000000 0.000000
30.315789 -6.000000 0.000000
30.947368 -6.000000 0.000000
31.578947 -6.000000 0.000000
32.210526 -6.000000 0.000000
32.842105 -6.000000 0.000000
33.473684 -6.000000 0.000000
34.105263 -6.000000 0.000000
34.736842 -6.000000 0.000000
35.368421 -6.000000 0.000000
36.000000 -6.000000 0.000000
36.631579 -6.000000 0.000000
37.263158 -6.000000 0.000000
37.894737 -6.000000 0.000000
38.526316 -6.000000 0.000000
39.157895 -6.000000 0.000000
39.789474 -6.000000 0.000000
40.421053 -6.000000 0.000000
41.052632 -6.000000 0.000000
41.684211 -6.000000 0.000000
42.315789 -6.000000 0.000000
42.947368 -6.000000 0.000000
43.578947 -6.000000 0.000000
44.210526 -6.000000 0.000000
44.842105 -6.000000 0.000000
45.473684 -6.000000 0.000000
46.105263 -6.000000 0.000000
46.736842 -6.000000 0.000000
47.368421 -6.000000 0.000000
48.000000 -5.368421 0.000000
48.000000 -4.736842 0.000000
48.000000 -4.105263 0.000000
48.000000 -3.473684 0.000000
48.000000 -2.842105 0.000000
48.000000 -2.210526 0.000000
48.000000 -1.578947 0.000000
48.000000 -0.947368 0.000000
48.000000 -0.315789 0.000000
48.000000 0.315789 0.000000
48.000000 0.947368 0.000000
48.000000 1.578947 0.000000
48.000000 2.210526 0.000000
48.000000 2.842105 0.000000
48.000000 3.473684 0.000000
48.000000 4.105263 0.000000
48.000000 4.736842 0.000000
48.000000 5.368421 0.000000
47.368421 6.000000 0.000000
46.736842 6.000000 0.000000
46.105263 6.000000 0.000000
45.473684 6.000000 0.000000
44.842105 6.000000 0.000000
44.210526 6.000000 0.000000
43.578947 6.000000 0.000000
42.947368 6.000000 0.000000
42.315789 6.000000 0.000000
41.684211 6.000000 0.000000
41.052632 6.000000 0.000000
40.421053 6.000000 0.000000
39.789474 6.000000 0.000000
39.157895 6.000000 0.000000
38.526316 6.000000 0.000000
37.894737 6.000000 0.000000
37.263158 6.000000 0.000000
36.631579 6.000000 0.000000
36.000000 6.000000 0.000000
35.368421 6.000000 0.000000
34.736842 6.000000 0.000000
34.105263 6.000000 0.000000
33.473684 6.000000 0.000000
32.842105 6.000000 0.000000
32.210526 6.000000 0.000000
31.578947 6.000000 0.000000
30.947368 6.000000 0.000000
30.315789 6.000000 0.000000
29.684211 6.000000 0.000000
29.052632 6.000000 0.000000
28.421053 6.000000 0.000000
27.789474 6.000000 0.000000
27.157895 6.000000 0.000000
26.526316 6.000000 0.000000
25.894737 6.000000 0.000000
25.263158 6.000000 0.000000
24.631579 6.000000 0.000000
24.000000 6.000000 0.000000
23.368421 6.000000 0.000000
22.736842 6.000000 0.000000
22.105263 6.000000 0.000000
21.473684 6.000000 0.000000
20.842105 6.000000 0.000000
20.210526 6.000000 0.000000
19.578947 6.000000 0.000000
18.947368 6.000000 0.000000
18.315789 6.000000 0.000000
17.684211 6.000000 0.000000
17.052632 6.000000 0.000000
16.421053 6.000000 0.000000
15.789474 6.000000 0.000000
15.157895 6.000000 0.000000
14.526316 6.000000 0.000000
13.894737 6.000000 0.000000
13.263158 6.000000 0.000000
12.631579 6.000000 0.000000
12.000000 6.000000 0.000000
11.368421 6.000000 0.000000
10.736842 6.000000 0.000000
10.105263 6.000000 0.000000
9.473684 6.000000 0.000000
8.842105 6.000000 0.000000
8.210526 6.000000 0.000000
7.578947 6.000000 0.000000
6.947368 6.000000 0.000000
6.315789 6.000000 0.000000
5.684211 6.000000 0.000000
5.052632 6.000000 0.000000
4.421053 6.000000 0.000000
3.789474 6.000000 0.000000
3.157895 6.000000 0.000000
2.526316 6.000000 0.000000
1.894737 6.000000 0.000000
1.263158 6.000000 0.000000
0.631579 6.000000 0.000000
0.000000 5.368421 0.000000
0.000000 4.736842 0.000000
0.000000 4.105263 0.000000
0.000000 3.473684 0.000000
0.000000 2.842105 0.000000
0.000000 2.210526 0.000000
0.000000 1.578947 0.000000
0.000000 0.947368 0.000000
0.000000 0.315789 0.000000
0.000000 -0.315789 0.000000
0.000000 -0.947368 0.000000
0.000000 -1.578947 0.000000
0.000000 -2.210526 0.000000
0.000000 -2.842105 0.000000
0.000000 -3.473684 0.000000
0.000000 -4.105263 0.000000
0.000000 -4.736842 0.000000
0.000000 -5.368421 0.000000
20.700682 -1.696987 0.000000
12.964235 1.608587 0.000000
39.074258 2.398064 0.000000
24.392564 -2.463262 0.000000
15.347421 4.200068 0.000000
46.728815 3.434659 0.000000
4.872869 2.251845 0.000000
26.006255 0.943235 0.000000
20.157315 -4.154177 0.000000
14.177254 1.051656 0.000000
1.241370 4.510656 0.000000
12.871616 4.748381 0.000000
43.067124 1.671892 0.000000
1.204977 0.724162 0.000000
25.688531 -0.099217 0.000000
41.865246 -2.454814 0.000000
41.037374 2.570216 0.000000
35.582911 -4.158228 0.000000
10.264059 3.071971 0.000000
44.489026 -0.368128 0.000000
19.441504 -5.382441 0.000000
14.890070 3.490847 0.000000
15.446932 1.657022 0.000000
41.160707 1.947916 0.000000
2.748526 -2.750570 0.000000
26.209635 -2.079908 0.000000
34.895566 2.222507 0.000000
33.070388 -3.539916 0.000000
13.630700 2.825165 0.000000
14.449495 -4.128748 0.000000
44.276138 2.254267 0.000000
7.046162 -1.589428 0.000000
23.033888 2.354092 0.000000
8.526596 -2.405282 0.000000
15.164453 -4.135726 0.000000
42.394813 1.038204 0.000000
9.217064 1.453896 0.000000
8.399601 -1.808136 0.000000
14.813568 1.387309 0.000000
4.194293 1.005955 0.000000
17.672702 -3.511774 0.000000
41.626530 -0.953207 0.000000
22.667270 -4.796608 0.000000
21.159197 2.996074 0.000000
33.448711 -2.941881 0.000000
13.757028 -2.862255 0.000000
42.166625 0.316318 0.000000
14.668019 4.138537 0.000000
1.221171 -4.170932 0.000000
23.237405 -0.701954 0.000000
13.059325 -2.899974 0.000000
20.672678 -2.321479 0.000000
25.647762 -2.381532 0.000000
3.433827 -2.931656 0.000000
12.334473 -1.557288 0.000000
42.123562 4.777240 0.000000
29.374827 1.019300 0.000000
27.030168 5.398426 0.000000
27.966831 1.243790 0.000000
42.456126 1.680707 0.000000
20.027318 -2.911597 0.000000
7.966716 4.222788 0.000000
14.073968 -0.356684 0.000000
43.216328 4.140001 0.000000
37.957432 -0.584941 0.000000
46.758180 2.706999 0.000000
31.558976 -2.449324 0.000000
21.229528 -3.580108 0.000000
1.790757 1.854400 0.000000
19.719180 4.204222 0.000000
35.562130 -2.980357 0.000000
1.869082 -4.761861 0.000000
44.347681 -2.987915 0.000000
14.847718 2.088047 0.000000
28.510290 -3.557903 0.000000
11.609303 -2.189973 0.000000
38.491598 -3.032886 0.000000
1.262655 -5.394655 0.000000
25.657296 -3.638260 0.000000
31.888741 -4.315569 0.000000
46.186897 0.878350 0.000000
9.351104 -0.453451 0.000000
2.430314 2.920116 0.000000
16.937272 -2.248834 0.000000
32.498425 0.040256 0.000000
19.491253 -1.002221 0.000000
35.182190 1.708219 0.000000
3.035978 2.550109 0.000000
47.332793 -5.263160 0.000000
30.008201 -0.233391 0.000000
0.619369 4.069312 0.000000
38.719470 -0.916939 0.000000
30.424008 -1.948277 0.000000
38.588959 -4.240052 0.000000
18.241641 -1.643653 0.000000
23.183327 -1.892952 0.000000
16.256682 -3.528234 0.000000
29.709609 -4.311241 0.000000
35.730221 -1.838433 0.000000
9.680088 -1.675684 0.000000
9.867042 -0.021457 0.000000
19.469882 -1.640709 0.000000
28.846372 -1.021552 0.000000
39.540524 -1.367866 0.000000
43.395381 -3.536128 0.000000
29.733662 1.516275 0.000000
0.616204 1.099071 0.000000
6.407934 -1.608194 0.000000
25.501526 2.239213 0.000000
16.040679 1.261544 0.000000
21.256642 -2.981548 0.000000
12.657863 -3.486806 0.000000
11.824490 -0.258498 0.000000
40.912286 3.138146 0.000000
37.967127 1.449591 0.000000
36.647069 5.389369 0.000000
4.877535 -0.288277 0.000000
16.107156 2.689505 0.000000
18.980301 5.387706 0.000000
14.248272 3.067517 0.000000
35.651491 0.586659 0.000000
32.975047 5.415073 0.000000
44.924480 1.521622 0.000000
1.213312 2.237343 0.000000
1.800626 2.601983 0.000000
23.996860 -4.548066 0.000000
8.383038 4.789051 0.000000
34.289174 3.280513 0.000000
40.402194 0.920694 0.000000
42.652159 -3.506810 0.000000
41.770743 0.847644 0.000000
33.164310 4.038916 0.000000
38.958479 0.527341 0.000000
22.168668 1.156107 0.000000
18.737919 -4.133450 0.000000
17.553315 4.117357 0.000000
46.244205 -1.409845 0.000000
11.689186 1.011874 0.000000
19.194073 2.985333 0.000000
35.560846 -5.407783 0.000000
36.973779 0.486231 0.000000
23.799011 -5.411193 0.000000
1.775431 -3.490040 0.000000
22.458723 2.939234 0.000000
8.218681 3.583399 0.000000
19.861092 2.416774 0.000000
20.266766 0.772809 0.000000
20.647029 -2.940997 0.000000
16.086320 1.977359 0.000000
32.175490 0.694558 0.000000
14.690060 -0.051042 0.000000
3.109756 -4.124658 0.000000
24.945483 2.900229 0.000000
19.383645 -2.895778 0.000000
11.029458 -2.833330 0.000000
5.883146 -5.366360 0.000000
46.819898 -3.302320 0.000000
4.331542 3.541093 0.000000
27.646829 2.883053 0.000000
47.384368 0.132349 0.000000
[...]
POINT_DATA 1500
SCALARS P float 1
LOOKUP_TABLE default
1000.164544
0.067640
-0.068776
-1000.172198
986.872160
973.673791
960.539109
947.363856
934.214363
921.051320
907.895286
894.736835
881.578982
868.420900
855.262867
842.105047
828.947365
815.789600
802.631582
789.473650
776.315576
763.157706
749.999968
736.842216
723.684331
710.526311
697.368249
684.210349
671.052527
657.894814
644.736973
631.578999
618.420917
605.262961
592.105092
578.947402
565.789571
552.631700
539.473597
526.315554
513.157668
500.000109
486.842688
473.684145
460.526357
447.368370
434.209902
421.052768
407.894721
394.737212
381.579129
368.420947
355.263003
342.104971
328.947410
315.789673
302.631590
289.473747
276.315532
263.157769
249.999997
236.842241
223.684395
210.526247
197.368340
184.210301
171.052533
157.894887
144.737081
131.578945
118.420996
105.262965
92.105141
78.947399
65.789837
52.631301
39.474139
26.316695
13.154901
-0.013737
0.005253
-0.001810
0.000579
0.000195
0.000571
-0.000283
-0.000727
-0.000325
0.000401
0.000518
0.000459
-0.000047
-0.000683
-0.000592
0.002657
-0.006751
0.016982
-13.152439
-26.317197
-39.473661
-52.631711
-65.789676
-78.947350
-92.105155
-105.262981
-118.420905
-131.579139
-144.736951
-157.894867
-171.052547
-184.210362
-197.368219
-210.526348
-223.684326
-236.842269
-249.999929
-263.157779
-276.315576
-289.473632
-302.631770
-315.789871
-328.947490
-342.105241
-355.262742
-368.420803
-381.579033
-394.737118
-407.894760
-421.052597
-434.210337
-447.368237
-460.526303
-473.684339
-486.842239
-499.999960
-513.157733
-526.315593
-539.473620
-552.631698
-565.789638
-578.947434
-592.105084
-605.262970
-618.420938
-631.578973
-644.736952
-657.894866
-671.052525
-684.210182
-697.368499
-710.526044
-723.684491
-736.842130
-749.999954
-763.157680
-776.315569
-789.473466
-802.631841
-815.789525
-828.947396
-842.105013
-855.262915
-868.420924
-881.579003
-894.736979
-907.894751
-921.052688
-934.211068
-947.366659
-960.534515
-973.680240
-986.870357
-894.662709
-789.516269
-684.180218
-578.960848
-473.677069
-368.421871
-263.157085
-157.894433
-52.631541
52.631655
157.894094
263.157620
368.421252
473.679756
578.956413
684.182214
789.515213
894.655426
160.856167
-195.687738
-74.321189
201.914193
-476.191154
-15.159578
-337.206996
-72.032209
401.609144
-123.506511
-732.332864
-579.176902
-28.636233
-117.663590
7.686395
52.290542
-62.136990
179.281587
-402.512856
4.487795
533.730644
-401.325291
-187.295622
-46.258214
432.178503
157.367890
-101.127393
183.505450
-337.149057
480.977641
-29.147846
226.017925
-204.071277
329.669003
471.523662
-20.206000
-195.785963
248.621195
-159.860498
-153.008915
369.800737
21.094562
421.913740
-279.225747
148.639412
340.319809
-6.406953
-478.977914
677.469746
60.354852
351.829958
220.277040
184.835333
453.655245
192.852392
-97.476237
-65.918895
-393.069806
-86.517523
-32.352865
282.795747
-586.986359
42.016951
-68.765332
20.396908
-11.672602
139.824283
332.781835
-297.536225
-412.843257
128.712807
762.743923
37.891733
-240.359454
240.772515
276.717518
100.131584
875.467097
282.251924
241.421004
-5.529723
60.851984
-462.044475
242.551747
-2.166797
99.208509
-76.026466
-398.135956
12.198901
14.580269
-669.473245
29.547488
118.898981
138.553167
169.834787
163.113802
388.881402
273.799573
78.323510
222.958565
2.841077
162.533404
67.939001
40.178570
56.536513
-96.169386
-180.826901
232.250364
-174.926625
-139.993405
276.863146
427.886007
32.469804
-77.230129
-50.498473
-212.448298
43.163978
-297.833135
-542.880615
-359.493070
-25.154021
-282.503958
-16.249244
-363.463443
-417.395348
379.054896
-658.776504
-156.175492
-24.289073
65.117569
-18.333992
-208.055950
-16.555445
-103.693701
419.976917
-435.277300
8.595240
-127.576325
-298.594691
233.570332
-18.615604
454.709057
560.158549
-260.665933
-494.973401
-236.129773
-74.418385
279.322946
-219.113936
-38.163326
5.903535
642.906097
-232.164526
287.731231
363.714409
784.771426
13.531128
-536.923964
-203.747447
-0.283062
-265.037476
200.068160
-40.772015
-447.436517
-277.808593
-38.514381
196.195333
-130.225513
-199.754000
22.118003
436.084029
55.810314
-331.110930
165.872527
204.021423
3.060448
731.745478
-212.143490
313.860179
-54.554634
60.250304
-318.799060
217.012449
-537.576301
308.988561
100.322338
-266.076272
1.382067
4.064741
-167.264478
634.961642
-256.561790
-23.465378
104.617005
-293.677572
-272.708243
-380.818223
324.558060
-38.336252
442.748478
404.178691
13.342634
117.993564
-26.402328
-139.539328
-474.747715
-540.078341
242.363502
-184.475701
-233.559429
-262.485757
-18.246127
103.796279
-62.807683
137.179724
-137.489972
3.812965
80.962916
110.394371
-237.771704
227.461933
341.226805
46.714539
4.557016
-82.851637
-57.157370
100.361969
665.663179
110.006651
176.267675
-268.608809
17.971582
94.529251
21.870724
421.633655
-187.704163
200.653563
317.170500
23.356854
9.502446
297.947453
-597.235081
174.834930
-49.034654
125.880097
-42.174340
62.814655
250.557266
7.851299
-693.329302
-47.120705
424.935311
164.624091
43.266629
-391.225433
-417.826664
26.262956
-609.998086
546.021353
-488.103645
495.520323
-109.288373
-117.001958
37.442285
72.281668
-206.717606
-1.545984
357.192566
-168.827760
243.591815
329.919115
211.270776
500.330779
112.450509
-80.674816
7.960479
-65.711004
745.892711
-10.364054
210.533608
146.755914
-651.297364
166.380578
-47.982453
-314.063508
-508.421036
-340.600569
-167.604579
198.908772
57.789217
759.121198
169.572571
396.721935
-147.581883
64.614806
-22.545832
-171.443193
-137.021719
28.056133
-6.041667
-43.564142
-45.659050
114.973802
327.939597
-78.743225
352.771638
-118.810367
376.478975
-332.682143
-500.997913
359.176467
-28.815538
-54.833401
123.901015
706.661245
50.269030
33.717280
164.995060
-133.583620
-14.953333
-238.910369
266.250809
-555.293011
318.528111
593.071582
-94.415293
21.939274
267.753212
-249.873010
717.912265
-340.735439
-133.944412
-427.622126
-452.422871
-285.932213
-23.199947
429.993993
-24.122253
-205.621482
840.890904
574.601565
-97.242073
-68.595883
-269.830341
-51.971539
-103.367591
-704.285322
-254.613107
-301.558721
13.711890
-462.455128
-535.478550
144.247532
-112.080147
35.444915
-158.627502
-74.409549
355.278263
-789.576401
94.291997
84.506195
521.547542
11.205227
-139.160439
36.613913
-593.603980
231.392862
-214.316410
85.478340
149.493800
-729.290878
51.661557
-35.412532
41.106271
-438.733064
92.729057
334.800496
225.592429
-70.091462
155.247079
237.782749
-147.848729
261.313055
272.780170
179.994742
266.179678
-19.787817
-127.342679
-8.379810
-141.888777
23.272280
-717.623169
-33.814601
-223.370353
-430.643264
413.005552
51.103421
-242.450369
-145.608830
-298.338666
-99.328703
268.704942
284.914463
214.659278
-126.255665
292.863050
-114.021553
-294.190875
65.831077
-45.691022
-93.923269
234.670127
-193.559319
16.718056
581.808104
-90.080080
45.984174
-860.705535
-297.025694
121.106749
391.675968
20.756062
125.904837
-139.601350
107.789329
62.894704
-246.903300
-608.243364
-628.838010
-183.746994
-117.621924
412.188141
168.767526
155.123192
247.249875
639.405167
-109.098264
-226.106182
-285.038746
-251.080276
-717.792165
488.859384
10.917460
110.348274
-329.187244
137.324127
40.863452
114.193648
148.901199
-138.312278
537.023187
301.117798
-383.336903
229.683174
559.766519
213.099255
-67.992264
-230.960137
-89.289841
27.028934
33.435198
70.422799
480.136567
20.414642
-485.546493
46.475571
294.702786
-170.554059
134.860619
-3.411486
-30.606929
54.896974
-16.122660
-176.538648
-150.123068
371.575675
-154.193712
-94.244628
-35.117360
-637.932738
-817.236565
178.707733
-54.408775
-365.930879
17.455315
50.117002
509.115585
-10.571922
-883.865650
66.265244
-53.184978
-226.387915
-370.601974
-217.205929
166.603879
-684.546706
-216.680941
106.088764
-314.509445
241.447617
140.648560
-357.850638
-0.934258
-337.235344
257.907305
360.235793
-825.361461
519.261392
-5.256718
-44.708201
-78.240731
41.029176
-305.321672
614.167475
-167.535306
-31.194495
5.171269
6.120036
176.946396
212.801238
32.669599
-244.428022
-640.048014
-281.368024
-551.791052
387.833185
72.453022
-52.850705
-348.388499
208.124377
54.784605
-60.700473
509.544176
-54.494382
217.802231
162.319903
-129.540395
559.118997
-0.782810
182.611959
47.649582
-182.120770
-153.530554
-349.320773
393.408357
-39.698224
-146.499390
-195.150604
-470.706510
-322.896114
-28.875868
320.526320
811.252934
31.100034
-367.780165
-152.459007
243.500234
-356.385662
-377.830944
-213.985503
132.875139
123.497602
44.847762
-240.283790
-524.575714
135.689756
-760.071521
-66.205469
16.434121
-160.846065
-23.940046
-144.837862
-216.228026
74.048323
293.985103
-5.247937
82.152250
-402.531689
-378.767800
399.641335
-46.178988
62.182528
265.188669
-4.455956
25.861473
491.722797
-74.192883
502.388063
259.467048
-9.088559
-89.319991
-183.192876
165.741525
461.893619
187.427816
-61.102515
466.123409
-49.251847
10.905141
-747.269989
-296.561101
83.161735
-571.187524
-252.006879
414.726095
-67.768432
-171.218270
-91.964428
-56.463754
-353.776985
104.265244
-381.901415
-22.624021
334.323427
-36.482545
-58.019772
-417.180355
-134.209090
-110.236384
572.770130
235.643313
-215.819769
-105.149922
-843.662171
-181.415958
-508.313956
149.029877
-54.114623
-44.907877
190.851759
280.394333
-313.290878
-13.818735
-91.896248
-165.865831
187.996345
57.412029
-42.832147
223.719490
60.326702
-729.228688
149.050824
-16.606245
76.562290
4.224059
118.189329
196.763424
52.149059
173.501996
-73.495662
213.344883
311.347513
-508.530244
268.894103
358.497221
-35.800235
-75.212420
-606.687950
17.659374
245.526020
-415.912015
-209.655541
652.071229
51.840465
610.675162
223.969867
-12.985244
39.045021
177.642503
-158.340821
101.274694
-86.076993
110.947883
42.770809
-127.599190
-443.474610
678.230025
-330.717416
22.674702
338.331254
98.625050
98.600046
-186.928024
337.162473
331.501806
203.793954
142.538363
-6.837272
138.295211
140.264999
22.094663
6.204579
151.274442
420.501612
7.925080
-323.600610
-236.891445
-177.594741
-117.749937
23.076029
196.753058
112.674153
444.658939
0.980431
-616.388436
158.016493
-23.727032
538.351884
193.334209
105.471473
319.922022
19.905947
509.579585
-292.742527
-143.765161
-147.440671
-47.075509
-288.994706
90.921889
570.928239
-636.602201
325.706022
-122.914393
-14.345520
-35.599566
-91.412787
322.235461
-518.824490
-379.094526
466.933956
408.541803
-200.752595
-155.707050
55.602533
-133.752386
-10.195492
861.242455
-242.620387
-4.364518
-323.637069
-156.093192
-199.183192
-30.339803
-706.491668
-235.673471
55.101891
-733.197148
839.457043
-101.461811
385.526371
125.952325
879.191815
-25.135677
-174.093116
252.331418
62.527567
61.743348
-36.485030
32.888934
603.757505
64.910801
93.737664
-180.554573
-514.987610
-36.870585
-51.148195
-103.162923
-44.923205
-855.473620
-11.606566
556.820260
-176.512826
-134.698604
525.192838
500.145693
-335.803568
-226.257747
-356.913988
264.207066
110.385482
-342.632742
-109.549476
33.414877
36.468800
-404.429068
500.570377
7.438294
-214.394737
-241.930085
58.777329
330.034998
-171.438341
-151.902086
-146.985570
16.933510
-169.805232
29.539560
770.012846
599.495778
-523.087322
-255.771577
436.539304
512.997563
-555.716534
89.239430
-17.664887
526.386868
10.584252
-85.194843
55.292603
-122.840389
545.951572
-14.423073
63.459808
-675.324127
101.890885
4.301852
195.467087
-185.491845
-53.426294
-58.295804
-4.141605
-278.932092
4.989747
-50.891940
-89.863748
83.225167
-267.739474
112.512213
344.928226
147.418216
-45.595599
12.567085
392.421641
-425.601037
41.300631
-127.077172
-37.491357
-1.072194
-19.415265
-103.150206
509.474979
-35.925115
-429.878799
77.708720
212.767149
163.122117
37.324822
-509.698579
-435.870847
170.988532
300.774367
573.850637
-497.125020
94.740948
354.679092
163.267640
124.815417
-321.012620
29.305396
-580.728877
-104.897383
-265.772586
-157.582080
112.693988
-244.787885
-424.399093
-92.868274
-18.199989
-464.416249
-278.260350
-174.470920
30.834069
-117.133240
-290.673701
-421.170310
-362.397589
-229.535741
-761.500159
-134.776269
624.220672
14.760891
-17.927036
520.842644
416.953376
77.168030
296.365964
592.268471
-88.924851
46.458178
-92.753174
-54.555483
-144.519736
-184.933044
-95.530793
-62.052157
647.929306
-184.519171
-475.385387
-127.953772
2.186430
28.012873
221.149409
270.102903
-674.445630
-233.034702
409.274843
-428.115199
600.763495
456.511848
162.670976
220.102001
114.906495
-108.536179
631.256765
548.360085
-12.591222
355.183157
-98.117445
-233.971037
-54.607422
-766.781247
-205.963410
-84.772226
-6.194359
-427.244254
-6.075484
-75.677304
-508.854797
6.220640
-635.808196
-221.356413
103.803075
539.590805
-267.955149
313.642650
51.783225
445.920512
-72.328831
-1.842699
-495.936780
-115.404393
-240.042110
62.595263
190.564496
112.632769
-357.847733
189.792166
210.227039
-63.623688
22.715702
36.060878
46.550166
-12.530862
76.906254
76.766886
586.774357
2.991075
-397.115937
13.823943
179.761946
230.706501
260.090179
772.121591
222.538769
-8.138787
-300.595936
-455.760744
-449.162197
52.999503
136.904786
824.682091
-298.953674
103.075051
-86.719157
40.188933
-70.791989
342.567503
-73.029095
-80.307526
-421.611453
-624.669780
225.107189
-113.428010
797.912568
678.494479
271.556453
-416.910581
97.098603
-803.766454
-338.063894
134.793438
-103.842095
415.312907
275.822308
-221.296057
58.839006
-782.098204
-32.474301
451.533937
273.063028
-285.524621
13.242809
100.107222
777.155042
23.152163
661.708736
-185.532580
78.909051
-202.572573
-43.958356
435.065163
-61.065580
-211.803610
36.355347
94.719489
-349.537693
-10.443593
-122.120943
204.156460
378.715939
48.028093
-121.755859
-72.151894
82.014371
-776.113934
-347.932667
83.886222
-45.242290
-22.957243
159.750084
1.003312
447.110902
89.885543
46.336882
164.477908
-452.130425
-166.357133
-58.895487
-36.822613
-511.783939
-57.588450
-427.442098
-366.908624
126.114158
174.515994
133.262392
13.493418
230.780508
355.524344
411.467867
-92.838793
-273.280680
665.041201
-5.062562
-236.454788
139.685715
-3.330576
-305.658069
322.074206
304.605806
-181.375161
-691.195083
261.717446
-2.065650
-341.326655
108.024339
-306.529835
-34.134372
30.335262
219.641052
706.995238
13.527579
-40.107983
119.228699
-156.095981
21.595809
56.612245
163.056005
305.288862
6.951378
160.883565
-143.119475
-230.393019
-154.114279
52.431008
-6.858194
411.234412
281.246098
-230.634176
685.987565
67.698801
722.567435
52.347289
361.101159
-252.072313
-197.121604
105.588321
24.801563
340.822688
40.608808
71.772671
-58.257104
-133.939563
-123.726516
103.956002
538.667843
263.748851
-108.683082
-53.810051
-326.753628
-26.662665
241.600528
-164.325070
-547.910307
-8.649721
-46.844182
-528.887790
3.709601
-373.896054
14.426985
38.714452
150.124322
-248.390644
-86.374556
-556.865328
587.747975
154.318741
338.700828
216.710860
67.335931
135.137415
-98.505041
86.594847
-270.853340
39.014346
298.323174
367.303717
6.467937
65.560690
499.828310
-114.879384
-439.306435
-88.292312
-95.422907
-309.217240
299.677633
175.542815
94.029596
-620.543615
-8.863777
733.437108
-571.784965
31.625358
12.062288
-72.795874
-318.328093
4.434269
112.913914
504.818384
179.486595
-149.705923
-217.174976
-59.826430
731.845600
112.941086
-662.649091
-496.251769
100.931269
-570.999208
-9.956368
269.959915
410.384585
-0.261575
-413.340827
-43.708663
3.801296
-7.958897
102.758192
-270.156649
-435.384593
-116.892111
-29.085721
47.123418
-420.208175
-310.716573
180.756447
-487.031703
521.373099
-29.291223
76.621217
201.230533
-241.268792
-126.576437
49.100666
-371.404320
-566.702014
331.485856
150.101659
-623.469879
-349.765227
-409.002503
-171.855283
26.623765
-8.420631
-452.850635
85.547745
27.994879
190.918218
-606.827684
105.436338
469.499404
234.230766
427.496315
-203.335478
-110.490875
697.046301
115.104148
-56.616560
-592.935504
-297.060192
-12.434433
653.956418
-8.460011
-33.242321
-2.153591
285.598977
430.426933
615.903981
-20.877977
40.658035
477.512927
134.008631
25.005395
-516.635317
53.948446
-29.468192
-529.176215
-358.136370
140.183813
-34.843332
248.384429
-23.288081
1.325097
377.857129
-103.398563
323.859094
-241.257788
15.198362
-158.091663
-286.607453
-599.287335
377.843814
-240.241807
-304.670449
-30.537041
480.678240
-52.317715
27.883552
47.197899
-676.663837
-227.841734
354.775456
40.538491
691.901520
294.635494
-113.252745
95.132000
466.816697
107.111996
-166.353565
742.973707
382.636288
-37.524578
102.570057
36.294562
-45.565367
616.631649
-650.856826
440.244580
414.137028
-489.280331
-324.633101
135.323412
-392.757606
228.970490
657.771109
130.353989
11.554156
-568.445655
-23.488994
-79.645915
-78.313460
-348.210851
107.779848
627.025975
310.152765
-39.227149
-48.567396
208.594207
344.748545
1.767895
275.672324
302.605317
48.330255
576.197808
307.144827
-114.127120
103.687348
-509.601845
