# vtk DataFile Version 2.0
patchtest_tri6_mix
ASCII
DATASET POLYDATA
POINTS 320 float
0.000000 0.000000 0.000000
1.000000 0.000000 0.000000
1.000000 1.000000 0.000000
0.000000 1.000000 0.000000
0.062500 0.000000 0.000000
0.125000 0.000000 0.000000
0.187500 0.000000 0.000000
0.250000 0.000000 0.000000
0.312500 0.000000 0.000000
0.375000 0.000000 0.000000
0.437500 0.000000 0.000000
0.500000 0.000000 0.000000
0.562500 0.000000 0.000000
0.625000 0.000000 0.000000
0.687500 0.000000 0.000000
0.750000 0.000000 0.000000
0.812500 0.000000 0.000000
0.875000 0.000000 0.000000
0.937500 0.000000 0.000000
1.000000 0.062500 0.000000
1.000000 0.125000 0.000000
1.000000 0.187500 0.000000
1.000000 0.250000 0.000000
1.000000 0.312500 0.000000
1.000000 0.375000 0.000000
1.000000 0.437500 0.000000
1.000000 0.500000 0.000000
1.000000 0.562500 0.000000
1.000000 0.625000 0.000000
1.000000 0.687500 0.000000
1.000000 0.750000 0.000000
1.000000 0.812500 0.000000
1.000000 0.875000 0.000000
1.000000 0.937500 0.000000
0.937500 1.000000 0.000000
0.875000 1.000000 0.000000
0.812500 1.000000 0.000000
0.750000 1.000000 0.000000
0.687500 1.000000 0.000000
0.625000 1.000000 0.000000
0.562500 1.000000 0.000000
0.500000 1.000000 0.000000
0.437500 1.000000 0.000000
0.375000 1.000000 0.000000
0.312500 1.000000 0.000000
0.250000 1.000000 0.000000
0.187500 1.000000 0.000000
0.125000 1.000000 0.000000
0.062500 1.000000 0.000000
0.000000 0.937500 0.000000
0.000000 0.875000 0.000000
0.000000 0.812500 0.000000
0.000000 0.750000 0.000000
0.000000 0.687500 0.000000
0.000000 0.625000 0.000000
0.000000 0.562500 0.000000
0.000000 0.500000 0.000000
0.000000 0.437500 0.000000
0.000000 0.375000 0.000000
0.000000 0.312500 0.000000
0.000000 0.250000 0.000000
0.000000 0.187500 0.000000
0.000000 0.125000 0.000000
0.000000 0.062500 0.000000
0.626833 0.885287 0.000000
0.612674 0.410122 0.000000
0.781973 0.249038 0.000000
0.500899 0.772539 0.000000
0.222978 0.560551 0.000000
0.563496 0.773292 0.000000
0.166079 0.284094 0.000000
0.207041 0.944056 0.000000
0.151429 0.159794 0.000000
0.165054 0.599441 0.000000
0.665600 0.576755 0.000000
0.776869 0.507529 0.000000
0.558442 0.113012 0.000000
0.554868 0.648093 0.000000
0.334048 0.391048 0.000000
0.463808 0.168027 0.000000
0.399595 0.725109 0.000000
0.556964 0.227113 0.000000
0.753132 0.886085 0.000000
0.616731 0.344243 0.000000
0.303563 0.221984 0.000000
0.530098 0.056527 0.000000
0.364915 0.670103 0.000000
0.276022 0.614850 0.000000
0.891539 0.180083 0.000000
0.782738 0.944543 0.000000
0.728135 0.349133 0.000000
0.943865 0.470545 0.000000
0.722084 0.476078 0.000000
0.943677 0.534163 0.000000
0.887541 0.889199 0.000000
0.279053 0.558733 0.000000
0.110977 0.114285 0.000000
0.368555 0.780122 0.000000
0.887768 0.568190 0.000000
0.275173 0.055276 0.000000
0.717719 0.056973 0.000000
0.446093 0.387898 0.000000
0.391328 0.446696 0.000000
0.654686 0.170316 0.000000
0.058439 0.722897 0.000000
0.943442 0.724511 0.000000
0.715792 0.168305 0.000000
0.306195 0.110296 0.000000
0.650548 0.281023 0.000000
0.502899 0.409304 0.000000
0.112945 0.633673 0.000000
0.502988 0.540513 0.000000
0.274172 0.164863 0.000000
0.655309 0.056283 0.000000
0.834842 0.281173 0.000000
0.330831 0.334927 0.000000
0.531433 0.942746 0.000000
0.657417 0.942164 0.000000
0.719844 0.942474 0.000000
0.223535 0.443096 0.000000
0.391054 0.558144 0.000000
0.503039 0.475117 0.000000
0.402491 0.833103 0.000000
0.888506 0.440059 0.000000
0.335246 0.446859 0.000000
0.784873 0.831992 0.000000
0.403052 0.055734 0.000000
0.496294 0.112577 0.000000
0.278829 0.277461 0.000000
0.273177 0.944586 0.000000
0.619667 0.113392 0.000000
0.143719 0.056973 0.000000
0.778867 0.176853 0.000000
0.845120 0.104262 0.000000
0.276576 0.333823 0.000000
0.466746 0.056198 0.000000
0.720415 0.727048 0.000000
0.609712 0.608302 0.000000
0.668949 0.384336 0.000000
0.279248 0.446867 0.000000
0.676125 0.327068 0.000000
0.815683 0.891785 0.000000
0.944082 0.342702 0.000000
0.949222 0.075613 0.000000
0.302988 0.781351 0.000000
0.338238 0.278961 0.000000
0.462860 0.280304 0.000000
0.202666 0.835607 0.000000
0.178436 0.107479 0.000000
0.886812 0.695743 0.000000
0.172820 0.782848 0.000000
0.886722 0.758666 0.000000
0.944711 0.213434 0.000000
0.619360 0.224116 0.000000
0.592647 0.719431 0.000000
0.720832 0.605564 0.000000
0.563582 0.885439 0.000000
0.778760 0.057835 0.000000
0.433212 0.111792 0.000000
0.531699 0.829667 0.000000
0.054376 0.783219 0.000000
0.780145 0.378453 0.000000
0.055144 0.219170 0.000000
0.775800 0.637968 0.000000
0.065316 0.838619 0.000000
0.055620 0.344284 0.000000
0.114146 0.248795 0.000000
0.056913 0.280691 0.000000
0.667066 0.510721 0.000000
0.221838 0.326411 0.000000
0.837153 0.053816 0.000000
0.223667 0.502327 0.000000
0.050784 0.897048 0.000000
0.173503 0.220331 0.000000
0.776063 0.702344 0.000000
0.612528 0.542387 0.000000
0.151796 0.725374 0.000000
0.594466 0.942579 0.000000
0.055598 0.534469 0.000000
0.832587 0.344201 0.000000
0.831602 0.665902 0.000000
0.590162 0.169315 0.000000
0.776480 0.572517 0.000000
0.171860 0.665061 0.000000
0.431072 0.223558 0.000000
0.667049 0.446346 0.000000
0.271305 0.726858 0.000000
0.887847 0.244421 0.000000
0.434848 0.776737 0.000000
0.339361 0.055386 0.000000
0.943778 0.277849 0.000000
0.945349 0.787450 0.000000
0.108996 0.769307 0.000000
0.777697 0.442552 0.000000
0.838669 0.159150 0.000000
0.141193 0.944540 0.000000
0.447198 0.561213 0.000000
0.238199 0.889814 0.000000
0.896931 0.054346 0.000000
0.832104 0.538116 0.000000
0.736909 0.114385 0.000000
0.897906 0.116328 0.000000
0.909976 0.948942 0.000000
0.051719 0.095502 0.000000
0.166739 0.409383 0.000000
0.949122 0.915898 0.000000
0.942590 0.853308 0.000000
0.612308 0.477009 0.000000
0.610596 0.669821 0.000000
0.831830 0.216839 0.000000
0.385660 0.335073 0.000000
0.370301 0.888866 0.000000
0.499649 0.886454 0.000000
0.073903 0.948150 0.000000
0.558957 0.329383 0.000000
0.222441 0.384416 0.000000
0.507076 0.602572 0.000000
0.219420 0.617312 0.000000
0.557940 0.446293 0.000000
0.466428 0.720808 0.000000
0.056294 0.598030 0.000000
0.210591 0.054137 0.000000
0.499858 0.344286 0.000000
0.279259 0.502765 0.000000
0.845253 0.846406 0.000000
0.111520 0.504129 0.000000
0.369872 0.111253 0.000000
0.833890 0.409479 0.000000
0.887934 0.504191 0.000000
0.130713 0.830783 0.000000
0.109162 0.694633 0.000000
0.692199 0.774238 0.000000
0.335102 0.558611 0.000000
0.334014 0.614127 0.000000
0.110914 0.313379 0.000000
0.533289 0.712413 0.000000
0.055822 0.407685 0.000000
0.278142 0.390611 0.000000
0.237314 0.672302 0.000000
0.450050 0.615833 0.000000
0.665390 0.642581 0.000000
0.110777 0.567985 0.000000
0.304332 0.889722 0.000000
0.557807 0.384395 0.000000
0.055951 0.470955 0.000000
0.887709 0.631926 0.000000
0.557460 0.511051 0.000000
0.776797 0.311119 0.000000
0.335246 0.502735 0.000000
0.399485 0.278454 0.000000
0.390191 0.390946 0.000000
0.629975 0.769333 0.000000
0.660832 0.710389 0.000000
0.446990 0.503920 0.000000
0.335072 0.725844 0.000000
0.943870 0.597941 0.000000
0.467818 0.830431 0.000000
0.736884 0.222689 0.000000
0.559219 0.576373 0.000000
0.337113 0.166578 0.000000
0.680515 0.228826 0.000000
0.592961 0.056725 0.000000
0.403930 0.943605 0.000000
0.596224 0.827771 0.000000
0.723206 0.411598 0.000000
0.166357 0.346348 0.000000
0.109581 0.889905 0.000000
0.591782 0.280914 0.000000
0.831668 0.602311 0.000000
0.467952 0.943201 0.000000
0.659214 0.828562 0.000000
0.527247 0.169444 0.000000
0.947460 0.146938 0.000000
0.889213 0.310710 0.000000
0.207952 0.725028 0.000000
0.166931 0.536647 0.000000
0.080165 0.051209 0.000000
0.400456 0.167471 0.000000
0.789865 0.115979 0.000000
0.943825 0.406687 0.000000
0.338803 0.944281 0.000000
0.435519 0.887361 0.000000
0.494124 0.224317 0.000000
0.828660 0.729174 0.000000
0.269747 0.835489 0.000000
0.523126 0.281788 0.000000
0.392587 0.613915 0.000000
0.111063 0.376991 0.000000
0.109287 0.189399 0.000000
0.221258 0.270122 0.000000
0.241545 0.110207 0.000000
0.721353 0.541316 0.000000
0.719945 0.282290 0.000000
0.848268 0.942339 0.000000
0.210367 0.165710 0.000000
0.167381 0.472944 0.000000
0.055007 0.660092 0.000000
0.766260 0.769553 0.000000
0.441614 0.332486 0.000000
0.829620 0.788035 0.000000
0.832587 0.473790 0.000000
0.943637 0.661466 0.000000
0.492854 0.663970 0.000000
0.888338 0.375219 0.000000
0.236991 0.780960 0.000000
0.690600 0.884197 0.000000
0.447121 0.445346 0.000000
0.367026 0.222766 0.000000
0.428202 0.670926 0.000000
0.391286 0.502353 0.000000
0.724404 0.825576 0.000000
0.300887 0.670840 0.000000
0.678769 0.112560 0.000000
0.059167 0.155785 0.000000
0.111537 0.440569 0.000000
0.171844 0.887353 0.000000
0.719006 0.668584 0.000000
0.892276 0.819477 0.000000
0.240879 0.218484 0.000000
0.336327 0.835122 0.000000
POLYGONS 574 2296
3 63 0 4
3 63 276 203
3 276 63 4
3 276 4 5
3 96 313 203
3 63 203 62
3 61 62 313
3 162 313 288
3 313 162 61
3 96 288 313
3 162 288 166
3 62 203 313
3 61 162 60
3 203 276 96
3 131 96 276
3 131 5 6
3 131 221 148
3 221 131 6
3 221 6 7
3 294 148 290
3 131 148 96
3 72 288 96
3 72 173 288
3 72 294 173
3 72 96 148
3 289 173 318
3 173 166 288
3 148 294 72
3 166 173 70
3 173 294 318
3 131 276 5
3 162 166 167
3 59 60 167
3 165 167 234
3 167 165 59
3 167 166 234
3 236 165 287
3 162 167 60
3 59 165 58
3 57 58 236
3 57 244 56
3 244 57 236
3 314 244 236
3 178 56 244
3 58 165 236
3 287 165 234
3 234 265 287
3 265 234 70
3 70 169 265
3 169 70 289
3 134 215 169
3 287 265 204
3 70 234 166
3 215 265 169
3 314 204 295
3 204 314 287
3 204 119 295
3 119 204 215
3 237 119 215
3 295 119 171
3 204 265 215
3 244 314 225
3 169 289 128
3 287 314 236
3 173 289 70
3 314 295 225
3 290 148 221
3 221 99 290
3 99 221 7
3 99 8 189
3 8 99 7
3 189 8 9
3 290 99 107
3 107 99 189
3 318 112 84
3 294 112 318
3 112 259 84
3 259 112 107
3 226 259 107
3 84 259 307
3 290 107 112
3 318 84 128
3 107 189 226
3 289 318 128
3 189 126 226
3 126 189 9
3 126 10 135
3 10 126 9
3 127 135 85
3 226 126 158
3 158 126 135
3 184 307 277
3 259 277 307
3 158 127 79
3 127 158 135
3 282 79 271
3 158 79 277
3 226 158 277
3 184 277 79
3 135 10 11
3 277 259 226
3 84 307 145
3 134 128 115
3 215 134 237
3 115 145 210
3 145 115 128
3 210 145 249
3 115 210 78
3 84 145 128
3 134 115 237
3 119 139 171
3 119 237 139
3 139 78 124
3 78 139 237
3 250 124 78
3 171 139 223
3 237 115 78
3 124 248 139
3 78 210 250
3 169 128 134
3 249 184 146
3 249 145 307
3 222 298 146
3 146 298 249
3 282 146 184
3 285 222 146
3 184 79 282
3 298 250 210
3 250 102 124
3 102 250 306
3 306 101 109
3 101 250 298
3 253 306 121
3 101 306 250
3 298 222 101
3 309 124 102
3 285 146 282
3 298 210 249
3 184 249 307
3 309 102 306
3 271 79 127
3 294 290 112
3 275 295 171
3 54 55 220
3 178 241 220
3 241 178 225
3 296 220 110
3 178 220 55
3 56 178 55
3 54 220 296
3 52 53 104
3 296 230 104
3 110 230 296
3 192 104 230
3 296 104 53
3 53 54 296
3 160 52 104
3 110 220 241
3 73 110 241
3 241 275 73
3 68 217 73
3 68 275 171
3 238 217 87
3 68 73 275
3 225 295 275
3 73 217 183
3 183 230 110
3 230 183 176
3 183 238 274
3 183 110 73
3 304 274 186
3 183 274 176
3 217 238 183
3 176 192 230
3 217 68 87
3 241 225 275
3 244 225 178
3 150 176 274
3 50 51 164
3 160 192 164
3 192 160 104
3 266 172 164
3 160 164 51
3 51 52 160
3 50 164 172
3 3 49 48
3 213 48 49
3 266 213 172
3 48 213 47
3 213 49 172
3 49 50 172
3 164 192 229
3 229 315 266
3 315 229 147
3 150 304 147
3 150 192 176
3 71 315 197
3 150 147 229
3 229 192 150
3 147 197 315
3 195 213 266
3 213 195 47
3 195 71 46
3 195 266 315
3 46 71 45
3 195 46 47
3 315 71 195
3 147 304 284
3 229 266 164
3 274 304 150
3 274 238 186
3 95 223 232
3 95 87 68
3 95 232 233
3 232 223 248
3 286 233 232
3 86 233 286
3 139 248 223
3 95 233 87
3 238 311 186
3 238 87 311
3 311 86 254
3 311 87 233
3 254 86 80
3 311 254 186
3 233 86 311
3 144 186 254
3 232 248 120
3 144 304 186
3 120 309 253
3 309 120 248
3 120 196 286
3 196 120 253
3 216 239 196
3 286 196 239
3 309 306 253
3 120 286 232
3 80 308 219
3 86 308 80
3 302 219 308
3 216 302 239
3 219 67 188
3 302 308 239
3 286 239 308
3 80 219 188
3 111 196 253
3 308 86 286
3 124 309 248
3 97 254 80
3 284 144 319
3 284 304 144
3 284 319 242
3 319 144 97
3 211 242 319
3 280 242 211
3 254 97 144
3 284 242 197
3 129 71 197
3 71 129 45
3 129 280 44
3 129 197 242
3 44 280 43
3 129 44 45
3 242 280 129
3 319 97 122
3 197 147 284
3 122 188 256
3 122 211 319
3 281 256 212
3 256 281 122
3 159 212 256
3 281 212 269
3 256 188 67
3 122 281 211
3 262 280 211
3 280 262 43
3 262 269 42
3 262 211 281
3 41 42 269
3 262 42 43
3 281 269 262
3 269 212 116
3 122 97 188
3 80 188 97
3 235 219 302
3 171 95 68
3 95 171 223
3 101 222 109
3 85 76 127
3 85 11 12
3 85 261 76
3 261 85 12
3 261 12 13
3 76 261 130
3 127 76 271
3 81 285 282
3 81 271 181
3 153 181 103
3 181 271 76
3 103 181 130
3 181 153 81
3 76 130 181
3 267 81 153
3 261 113 130
3 81 282 271
3 312 130 113
3 113 13 14
3 14 15 100
3 200 100 157
3 14 100 113
3 113 100 312
3 103 312 106
3 103 130 312
3 257 106 132
3 200 106 312
3 257 66 292
3 103 106 260
3 312 100 200
3 153 103 260
3 200 132 106
3 113 261 13
3 106 257 260
3 222 243 109
3 222 214 243
3 214 267 83
3 267 214 285
3 83 267 108
3 214 83 243
3 81 267 285
3 243 83 65
3 121 306 109
3 121 109 218
3 218 65 207
3 218 109 243
3 185 207 65
3 121 218 246
3 243 65 218
3 207 246 218
3 65 83 138
3 222 285 214
3 140 138 83
3 140 108 292
3 257 292 260
3 247 292 66
3 140 292 90
3 260 292 108
3 267 153 108
3 90 292 247
3 185 138 264
3 185 65 138
3 161 264 90
3 264 92 185
3 90 264 138
3 92 264 193
3 138 140 90
3 207 185 168
3 161 90 247
3 83 108 140
3 260 108 153
3 92 168 185
3 157 100 15
3 121 111 253
3 157 16 170
3 16 157 15
3 133 170 198
3 17 170 16
3 201 194 133
3 157 170 278
3 278 170 133
3 132 278 194
3 132 200 278
3 209 194 88
3 194 209 132
3 194 278 133
3 187 209 88
3 194 201 88
3 132 209 66
3 198 170 17
3 257 132 66
3 198 18 143
3 18 198 17
3 18 19 143
3 19 18 1
3 143 19 20
3 198 143 201
3 272 88 201
3 88 272 152
3 272 20 21
3 272 201 143
3 272 21 152
3 143 20 272
3 152 21 22
3 198 201 133
3 187 88 152
3 179 161 247
3 247 114 179
3 273 179 114
3 114 66 209
3 273 114 187
3 179 273 303
3 209 187 114
3 179 303 227
3 193 161 227
3 264 161 193
3 300 227 123
3 227 300 193
3 227 161 179
3 228 300 123
3 303 123 227
3 92 193 75
3 303 279 123
3 114 247 66
3 273 190 142
3 190 273 187
3 190 23 142
3 23 190 22
3 142 23 24
3 187 152 190
3 142 279 303
3 91 123 279
3 91 279 25
3 24 25 279
3 25 26 91
3 279 142 24
3 228 123 91
3 303 273 142
3 152 22 190
3 75 193 300
3 200 157 278
3 93 91 26
3 302 216 77
3 216 111 258
3 246 175 258
3 246 207 175
3 258 175 137
3 246 258 111
3 111 121 246
3 216 258 77
3 235 77 154
3 235 302 77
3 77 208 154
3 208 77 137
3 240 208 137
3 154 208 252
3 77 258 137
3 69 235 154
3 137 175 74
3 235 67 219
3 240 74 155
3 252 208 240
3 291 155 74
3 168 92 291
3 163 316 155
3 291 74 168
3 137 74 240
3 240 155 316
3 231 251 252
3 251 154 252
3 136 174 297
3 316 174 136
3 231 252 136
3 316 136 252
3 252 240 316
3 231 136 297
3 155 291 182
3 74 175 168
3 168 175 207
3 69 154 251
3 212 159 156
3 159 67 69
3 263 156 159
3 69 251 263
3 177 156 64
3 263 159 69
3 235 69 67
3 156 116 212
3 41 116 40
3 41 269 116
3 40 177 39
3 177 40 116
3 117 39 177
3 116 156 177
3 64 156 263
3 256 67 159
3 64 270 305
3 270 64 263
3 270 310 305
3 310 270 231
3 310 231 297
3 305 310 82
3 263 251 270
3 64 305 117
3 38 39 117
3 38 117 118
3 37 118 89
3 118 117 305
3 82 89 118
3 118 37 38
3 305 82 118
3 82 310 125
3 117 177 64
3 270 251 231
3 125 310 297
3 196 111 216
3 182 75 199
3 182 163 155
3 245 268 98
3 199 268 182
3 98 268 199
3 268 245 180
3 300 199 75
3 182 268 163
3 163 174 316
3 174 163 180
3 283 180 149
3 180 283 174
3 149 180 245
3 151 283 149
3 163 268 180
3 283 299 297
3 245 301 149
3 182 291 75
3 98 228 93
3 228 98 199
3 93 27 255
3 93 228 91
3 255 27 28
3 93 255 98
3 26 27 93
3 255 301 245
3 105 301 29
3 105 149 301
3 28 29 301
3 29 30 105
3 301 255 28
3 151 149 105
3 245 98 255
3 75 291 92
3 191 105 30
3 125 299 224
3 125 297 299
3 94 224 317
3 299 317 224
3 151 317 299
3 125 224 141
3 299 283 151
3 141 224 94
3 89 36 37
3 36 89 293
3 293 35 36
3 293 141 94
3 202 35 293
3 293 89 141
3 82 141 89
3 293 94 202
3 82 125 141
3 205 94 206
3 206 317 191
3 31 32 206
3 191 151 105
3 31 206 191
3 317 151 191
3 206 32 205
3 202 34 35
3 34 202 205
3 33 2 34
3 33 205 32
3 33 34 205
3 94 205 202
3 206 94 317
3 30 31 191
3 174 283 297
3 228 199 300
3 135 11 85
POINT_DATA 320
SCALARS P float 1
LOOKUP_TABLE default
481037843.801465
2516562859.118715
7100208656.237785
3156279363.541711
568692640.324737
654455532.417610
747483254.320680
846459256.506140
952058583.505300
1063362025.117030
1180846251.165103
1304716199.124905
1434808903.981497
1570807561.606071
1713000219.517588
1861872655.732087
2015917783.474610
2177739096.782084
2343392470.416117
2735777659.571186
2962508558.856199
3199820587.589522
3445343024.578166
3699892269.685724
3964191764.669116
4237481316.864314
4519632922.303839
4810919690.336553
5111755583.190721
5421502516.904380
5740160281.366169
6068431348.478398
6405278578.706474
6752715159.503266
6815009919.007075
6527091677.903295
6246238136.155289
5971656637.124385
5703105245.630731
5440809118.032672
5184514262.607214
4934748529.248106
4691049423.863019
4453278604.544076
4221679228.617146
3996787655.106025
3777643414.523352
3564261285.885848
3358873243.302842
2921256630.641203
2695551912.217667
2477935418.984846
2270410631.253932
2071117923.963422
1881780717.380972
1701089932.882529
1529772607.566951
1367175443.155935
1214170710.083242
1070240187.917349
935372226.500658
809354564.493339
692913902.038983
586257275.835611
4884969304.278111
2837703935.133837
2759669324.517543
3906310452.144982
2251179532.430758
4132824390.459230
1325798421.500023
3611376569.726094
1009019689.412745
2222709482.822838
3653598344.586964
3746808431.982547
1731582487.094402
3571862230.438596
2005625134.856624
1666748414.477577
3367808619.454701
2066604285.290802
5397826399.811653
2614592037.671504
1456272665.410406
1512288888.953871
3044561760.992265
2579855080.582054
2836670835.943715
5821689225.820961
2963151893.167658
4178717411.730913
3433512538.139786
4463624306.258821
5984011988.747441
2397241364.186312
845261136.609878
3485479618.784775
4408817091.387442
1003707259.146409
1951467314.677005
2287529449.695768
2332343822.267583
2140940420.574238
2339035651.838202
5373344632.319297
2296000994.365653
1185354088.599959
2492888922.805513
2515485054.092268
2194841771.539289
2985033935.119232
1252264183.551830
1797827583.826379
3037659238.979602
1830060709.650970
4784976046.004501
5284523009.659284
5544550122.829549
1888068874.447067
2713366945.499985
2746391796.970079
3819514575.325535
3849876866.268593
2183035984.263751
5258736385.458205
1245447800.175703
1587915695.616196
1548731624.629105
3840937152.385910
1878755605.111508
786266055.426198
2498265742.782102
2437691227.827907
1698837650.064851
1376245943.832327
4505193272.529224
3594288047.888336
2912887278.107713
2038387854.337509
2727110567.442816
5689194109.846246
3634503799.078543
2633919612.218672
3276039183.133984
1687441601.806362
1991779100.086853
3166115796.600410
944975911.787141
5002691060.449586
2875685800.151177
5310394629.445391
3123951549.395152
2219426454.909172
4002821613.233240
3967004504.864317
4640241608.345960
2108822887.625080
1447639370.199257
4266456898.955895
2531351248.495095
3237195070.586914
965979446.608995
4307751887.199857
2756835632.634480
1250146329.995136
1138870821.269955
1103907389.552206
3391152896.593524
1554163541.468125
2249289788.675627
2068387950.530515
2927126010.186441
1186372129.911890
4602467461.361342
3338489794.181293
2608556617.949007
5032549412.681351
1751294178.124274
3272295938.408995
4645284315.272716
1973190843.947428
4021806808.661306
2457909728.085678
1747063135.385453
3139885415.822707
2968485813.308466
3063879974.339197
3695092790.267238
1121377748.006624
3371572348.290168
5701218163.652115
2638906556.883324
3482953979.315681
2607334257.631938
3394504323.527161
2891718405.036248
3495399422.055130
2413149613.321827
4071496162.821235
2178799578.374139
2627909542.800808
6404289785.739636
716489124.241240
1656966010.120007
6400187785.759681
6033419962.606401
3084900450.383221
3853720936.372059
2791680408.851930
1964794125.190099
3944105169.419058
4403243700.542843
3190955241.632606
2401783075.763262
1715558169.197052
3234261046.927821
2429090902.510946
2805256361.678976
3571754574.212835
1939262175.035639
889825803.814544
2289518005.327289
2214297577.736383
5580465756.164434
1796599088.182112
1314087719.274531
3536280537.296900
4124120906.312874
2924873177.526915
2383685407.325989
4615645301.508322
2553720456.975462
2745540719.939363
1286061613.510910
3764763898.189274
1408379115.761585
1865994253.341986
2669233523.609153
3104511665.533740
3929640786.604771
1984336819.695725
3718025109.398914
2585583157.744730
1575369215.009037
4702431018.718661
3042882909.280804
2970823688.806633
2364800307.747756
1830298464.682804
2149186676.822774
4358499727.603839
4208586393.566103
2684448846.210215
3163325196.007697
4760046282.148823
4038309094.077465
2537017725.447121
3299609230.191677
1384806504.025854
2400159100.848624
1653262801.444741
4305590909.604250
4498058650.742870
3184054676.830528
1485544386.372710
3080941314.672146
2330319972.942726
4354473795.546150
4543284974.625501
4742550237.818528
1819621186.035429
2883883434.567195
3323574895.286689
2771176524.291152
2029764736.043927
679424750.457326
1523089041.102423
2324739104.961253
3901414645.055271
4071760747.377218
4171248379.658608
1900745764.798856
4932823960.101715
3381511136.860215
2150264783.582802
2920295168.433360
1446565954.741221
997857253.054837
1405620560.620459
1063009169.943820
3696997325.090605
2695888914.710051
6094268619.018484
1130497076.756813
1839744591.860983
2127278387.278152
4880017933.790163
2098684406.679496
5223552461.103514
3797628909.436384
5062906862.366082
3430215680.316658
3579436161.162773
3065686069.520514
5133605158.201105
2481723670.890886
1597666629.916203
3247455850.705909
2519377401.549236
4983672051.734541
2851970308.995453
2022932761.101011
842780712.229437
1617347252.663446
3268471618.968881
4235620049.360535
5641615987.581474
1315964332.248545
3601436364.155650
