# vtk DataFile Version 2.0
patchtest_tri3_mix
ASCII
DATASET POLYDATA
POINTS 79 float
0.000000 0.000000 0.000000
1.000000 0.000000 0.000000
1.000000 1.000000 0.000000
0.000000 1.000000 0.000000
0.125000 0.000000 0.000000
0.250000 0.000000 0.000000
0.375000 0.000000 0.000000
0.500000 0.000000 0.000000
0.625000 0.000000 0.000000
0.750000 0.000000 0.000000
0.875000 0.000000 0.000000
1.000000 0.125000 0.000000
1.000000 0.250000 0.000000
1.000000 0.375000 0.000000
1.000000 0.500000 0.000000
1.000000 0.625000 0.000000
1.000000 0.750000 0.000000
1.000000 0.875000 0.000000
0.875000 1.000000 0.000000
0.750000 1.000000 0.000000
0.625000 1.000000 0.000000
0.500000 1.000000 0.000000
0.375000 1.000000 0.000000
0.250000 1.000000 0.000000
0.125000 1.000000 0.000000
0.000000 0.875000 0.000000
0.000000 0.750000 0.000000
0.000000 0.625000 0.000000
0.000000 0.500000 0.000000
0.000000 0.375000 0.000000
0.000000 0.250000 0.000000
0.000000 0.125000 0.000000
0.248783 0.438248 0.000000
0.174881 0.870253 0.000000
0.425583 0.766230 0.000000
0.217007 0.582792 0.000000
0.323470 0.664080 0.000000
0.745484 0.567239 0.000000
0.501518 0.516314 0.000000
0.345145 0.214509 0.000000
0.866070 0.638361 0.000000
0.104639 0.110502 0.000000
0.663417 0.349679 0.000000
0.108955 0.234083 0.000000
0.571784 0.743645 0.000000
0.568396 0.119047 0.000000
0.830228 0.761610 0.000000
0.119400 0.492494 0.000000
0.849927 0.882664 0.000000
0.209416 0.136868 0.000000
0.889469 0.236163 0.000000
0.883310 0.368089 0.000000
0.353501 0.537340 0.000000
0.226759 0.266829 0.000000
0.405694 0.427009 0.000000
0.130264 0.361570 0.000000
0.527053 0.872758 0.000000
0.445644 0.304728 0.000000
0.361513 0.882292 0.000000
0.876448 0.504691 0.000000
0.637525 0.481053 0.000000
0.765292 0.428666 0.000000
0.794452 0.141597 0.000000
0.313707 0.108725 0.000000
0.322549 0.338774 0.000000
0.538693 0.389018 0.000000
0.433648 0.102702 0.000000
0.462771 0.639405 0.000000
0.709951 0.701892 0.000000
0.604248 0.610251 0.000000
0.897479 0.109466 0.000000
0.678068 0.214632 0.000000
0.776220 0.284965 0.000000
0.691326 0.852837 0.000000
0.273981 0.778867 0.000000
0.143332 0.717449 0.000000
0.572667 0.258068 0.000000
0.472085 0.195289 0.000000
0.687431 0.103038 0.000000
POLYGONS 124 496
3 31 0 41
3 41 4 49
3 4 41 0
3 31 41 43
3 29 30 55
3 55 43 53
3 43 30 31
3 53 43 49
3 43 55 30
3 41 49 43
3 29 55 47
3 4 5 49
3 39 49 63
3 63 5 6
3 6 7 66
3 77 66 45
3 6 66 63
3 63 66 39
3 55 53 32
3 64 53 39
3 39 77 57
3 77 39 66
3 65 54 57
3 39 57 64
3 49 39 53
3 64 57 54
3 57 77 76
3 63 49 5
3 32 53 64
3 27 28 47
3 35 75 27
3 35 47 32
3 33 75 74
3 35 27 47
3 29 47 28
3 27 75 26
3 25 26 33
3 25 24 3
3 24 25 33
3 24 33 23
3 26 75 33
3 75 35 36
3 36 74 75
3 35 52 36
3 67 52 38
3 54 52 32
3 54 38 52
3 52 67 36
3 32 64 54
3 36 67 34
3 33 58 23
3 33 74 58
3 22 58 21
3 34 58 74
3 34 56 58
3 58 22 23
3 74 36 34
3 34 67 44
3 32 52 35
3 55 32 47
3 45 66 7
3 45 8 78
3 8 45 7
3 62 71 78
3 78 71 45
3 9 78 8
3 72 42 71
3 45 71 76
3 65 76 42
3 65 57 76
3 60 42 61
3 42 60 65
3 42 76 71
3 37 60 61
3 42 72 61
3 65 60 38
3 62 78 9
3 65 38 54
3 62 10 70
3 10 62 9
3 70 1 11
3 1 70 10
3 62 70 50
3 50 70 11
3 72 51 61
3 51 72 50
3 12 13 51
3 12 50 11
3 12 51 50
3 72 62 50
3 61 51 59
3 62 72 71
3 13 14 51
3 44 56 34
3 67 69 44
3 69 37 68
3 69 38 60
3 46 73 68
3 69 68 44
3 37 69 60
3 44 68 73
3 21 56 20
3 21 58 56
3 20 73 19
3 73 20 56
3 48 19 73
3 56 44 73
3 68 37 40
3 38 69 67
3 40 59 15
3 40 46 68
3 14 15 59
3 15 16 40
3 61 59 37
3 40 16 46
3 46 48 73
3 46 16 48
3 18 17 2
3 17 18 48
3 16 17 48
3 48 18 19
3 40 37 59
3 51 14 59
3 77 45 76
POINT_DATA 79
SCALARS P float 1
LOOKUP_TABLE default
2977.084246
-22.895528
0.974427
-2829.994455
2883.023427
2169.589599
2132.661348
1332.982467
1127.445122
688.846562
350.801342
140.376985
59.622008
23.026745
0.682891
-24.345666
-27.393860
-29.039688
-481.106005
-819.979437
-1212.569879
-1562.056302
-2168.400800
-2290.622316
-2979.320054
-2094.349807
-1069.719369
-788.942442
740.602312
405.152792
2049.648890
2390.060537
368.817030
-1673.187413
-986.523494
-234.042120
-591.306568
-100.519200
-34.146552
1283.350470
-70.818798
1454.963385
307.107148
1155.569939
-635.319070
1047.773518
-302.033108
-267.772256
-219.229936
2176.107548
79.252229
92.059901
-240.866374
1010.579628
317.613685
804.383268
-945.379107
666.513525
-1250.484734
-8.557677
55.426218
96.962505
555.224406
1115.824423
542.479265
267.560724
1451.791890
-394.437959
-332.925367
-257.100461
140.766787
445.908944
335.918046
-612.402548
-1238.376168
-1248.476150
687.486169
803.783572
740.371754
