# vtk DataFile Version 2.0
patchtest_tri6_mix
ASCII
DATASET POLYDATA
POINTS 240 float
0.000000 -6.000000 0.000000
48.000000 -6.000000 0.000000
48.000000 6.000000 0.000000
0.000000 6.000000 0.000000
1.500000 -6.000000 0.000000
3.000000 -6.000000 0.000000
4.500000 -6.000000 0.000000
6.000000 -6.000000 0.000000
7.500000 -6.000000 0.000000
9.000000 -6.000000 0.000000
10.500000 -6.000000 0.000000
12.000000 -6.000000 0.000000
13.500000 -6.000000 0.000000
15.000000 -6.000000 0.000000
16.500000 -6.000000 0.000000
18.000000 -6.000000 0.000000
19.500000 -6.000000 0.000000
21.000000 -6.000000 0.000000
22.500000 -6.000000 0.000000
24.000000 -6.000000 0.000000
25.500000 -6.000000 0.000000
27.000000 -6.000000 0.000000
28.500000 -6.000000 0.000000
30.000000 -6.000000 0.000000
31.500000 -6.000000 0.000000
33.000000 -6.000000 0.000000
34.500000 -6.000000 0.000000
36.000000 -6.000000 0.000000
37.500000 -6.000000 0.000000
39.000000 -6.000000 0.000000
40.500000 -6.000000 0.000000
42.000000 -6.000000 0.000000
43.500000 -6.000000 0.000000
45.000000 -6.000000 0.000000
46.500000 -6.000000 0.000000
48.000000 -4.500000 0.000000
48.000000 -3.000000 0.000000
48.000000 -1.500000 0.000000
48.000000 -0.000000 0.000000
48.000000 1.500000 0.000000
48.000000 3.000000 0.000000
48.000000 4.500000 0.000000
46.500000 6.000000 0.000000
45.000000 6.000000 0.000000
43.500000 6.000000 0.000000
42.000000 6.000000 0.000000
40.500000 6.000000 0.000000
39.000000 6.000000 0.000000
37.500000 6.000000 0.000000
36.000000 6.000000 0.000000
34.500000 6.000000 0.000000
33.000000 6.000000 0.000000
31.500000 6.000000 0.000000
30.000000 6.000000 0.000000
28.500000 6.000000 0.000000
27.000000 6.000000 0.000000
25.500000 6.000000 0.000000
24.000000 6.000000 0.000000
22.500000 6.000000 0.000000
21.000000 6.000000 0.000000
19.500000 6.000000 0.000000
18.000000 6.000000 0.000000
16.500000 6.000000 0.000000
15.000000 6.000000 0.000000
13.500000 6.000000 0.000000
12.000000 6.000000 0.000000
10.500000 6.000000 0.000000
9.000000 6.000000 0.000000
7.500000 6.000000 0.000000
6.000000 6.000000 0.000000
4.500000 6.000000 0.000000
3.000000 6.000000 0.000000
1.500000 6.000000 0.000000
0.000000 4.500000 0.000000
0.000000 3.000000 0.000000
0.000000 1.500000 0.000000
0.000000 0.000000 0.000000
0.000000 -1.500000 0.000000
0.000000 -3.000000 0.000000
0.000000 -4.500000 0.000000
23.640827 2.546122 0.000000
1.696322 4.026584 0.000000
37.486423 -4.264391 0.000000
13.292404 -0.876328 0.000000
11.228980 -4.249332 0.000000
26.946354 2.504363 0.000000
34.532290 4.235573 0.000000
25.215702 -0.872836 0.000000
8.501563 4.244489 0.000000
35.181535 0.734513 0.000000
33.745448 -2.600120 0.000000
18.236499 -2.593569 0.000000
3.652206 -0.899609 0.000000
37.498907 4.292906 0.000000
18.283862 0.894518 0.000000
33.513656 0.683593 0.000000
25.415555 4.240082 0.000000
25.310594 2.520498 0.000000
42.765335 -1.026600 0.000000
6.889836 0.835548 0.000000
26.909033 0.780701 0.000000
15.095291 -0.863178 0.000000
41.805693 4.203802 0.000000
42.792609 -4.238815 0.000000
46.299858 -0.939773 0.000000
31.609684 4.215482 0.000000
18.145804 -4.254921 0.000000
40.913366 -4.236951 0.000000
35.980173 4.269760 0.000000
44.620567 -4.280865 0.000000
36.714232 -0.971342 0.000000
41.599279 2.382542 0.000000
46.293101 4.257498 0.000000
32.519274 -4.257142 0.000000
8.703441 -2.551245 0.000000
46.296495 2.539381 0.000000
5.074187 2.526819 0.000000
44.604283 -0.964773 0.000000
29.646228 -2.592812 0.000000
8.412609 2.541636 0.000000
25.698354 -2.569352 0.000000
16.884671 4.259246 0.000000
34.774634 2.466338 0.000000
18.612324 4.264000 0.000000
7.537012 -0.857123 0.000000
14.502528 -2.564864 0.000000
20.062484 0.893224 0.000000
21.933681 -2.621745 0.000000
30.733053 -0.954599 0.000000
30.084249 0.762612 0.000000
3.414699 0.869007 0.000000
20.091666 -2.604025 0.000000
28.545849 2.505794 0.000000
1.798589 -4.053078 0.000000
38.161719 0.760776 0.000000
20.353706 4.257965 0.000000
1.713135 -1.909227 0.000000
31.698312 -2.608372 0.000000
7.499216 -4.258454 0.000000
28.488260 0.783711 0.000000
33.089736 4.207970 0.000000
33.279557 2.421164 0.000000
41.607243 0.617576 0.000000
5.587395 -0.863217 0.000000
8.730977 0.834309 0.000000
13.532422 2.537178 0.000000
28.539892 4.238760 0.000000
31.717870 2.444312 0.000000
9.484824 -0.863754 0.000000
40.190164 2.363713 0.000000
36.173580 2.495242 0.000000
39.725282 -2.602309 0.000000
11.880239 4.234965 0.000000
28.796264 -0.923736 0.000000
20.291902 2.574433 0.000000
13.530253 4.241072 0.000000
44.710636 0.752724 0.000000
10.619699 -2.559545 0.000000
12.564367 -2.572348 0.000000
18.198139 -0.830624 0.000000
23.384130 -4.262106 0.000000
26.937277 -4.268123 0.000000
6.747860 2.532615 0.000000
18.619853 2.591717 0.000000
44.688822 2.493271 0.000000
43.218846 0.729960 0.000000
40.736364 -1.050346 0.000000
37.448074 2.544574 0.000000
11.414032 -0.872827 0.000000
41.859719 -2.603115 0.000000
10.632603 0.818194 0.000000
46.280362 0.796302 0.000000
28.751084 -4.275935 0.000000
20.864815 -0.828928 0.000000
25.264092 0.820251 0.000000
25.161231 -4.265616 0.000000
5.059991 4.236525 0.000000
31.773386 0.723840 0.000000
44.708528 4.232852 0.000000
32.733943 -0.990041 0.000000
30.139546 2.479624 0.000000
21.601005 -4.274799 0.000000
30.086340 4.228112 0.000000
35.947747 -4.262283 0.000000
26.970020 -0.908510 0.000000
1.709990 2.010892 0.000000
38.803628 2.478658 0.000000
38.671581 -0.964472 0.000000
16.942754 2.572082 0.000000
37.714818 -2.612159 0.000000
40.442331 4.192274 0.000000
14.534490 0.819342 0.000000
1.777820 -0.006998 0.000000
43.993363 -2.624677 0.000000
3.739214 -4.314565 0.000000
34.758512 -0.956725 0.000000
43.101810 2.462417 0.000000
43.221509 4.225378 0.000000
5.628252 -4.259413 0.000000
16.392021 -2.569847 0.000000
6.826227 -2.550254 0.000000
5.114294 0.822317 0.000000
30.630152 -4.262727 0.000000
15.251560 2.544128 0.000000
46.318630 -4.269434 0.000000
19.537089 -0.886955 0.000000
19.852496 -4.264307 0.000000
22.177273 -0.918192 0.000000
36.678187 0.703578 0.000000
6.778773 4.237462 0.000000
13.059121 -4.255402 0.000000
35.733986 -2.611955 0.000000
21.841245 0.884779 0.000000
39.025216 4.241303 0.000000
12.586352 0.812432 0.000000
10.091114 2.539869 0.000000
9.360971 -4.255030 0.000000
39.845990 0.629911 0.000000
23.557033 0.851030 0.000000
3.385378 2.612174 0.000000
16.748609 -0.867711 0.000000
46.022938 -2.615373 0.000000
27.651015 -2.590124 0.000000
3.247801 -2.652636 0.000000
34.301955 -4.275995 0.000000
14.803584 -4.247994 0.000000
3.351132 4.293263 0.000000
15.187730 4.242891 0.000000
26.984842 4.237578 0.000000
16.476755 -4.248661 0.000000
21.965255 2.571403 0.000000
11.801865 2.525702 0.000000
39.119129 -4.276093 0.000000
23.597839 -0.862031 0.000000
10.204841 4.245178 0.000000
16.445223 0.842901 0.000000
22.081414 4.259566 0.000000
4.997080 -2.566611 0.000000
23.810954 -2.580933 0.000000
23.779197 4.251792 0.000000
POLYGONS 398 1592
3 0 4 79
3 133 4 5
3 194 133 5
3 133 79 4
3 6 198 194
3 198 6 7
3 5 6 194
3 194 198 237
3 7 8 138
3 9 10 216
3 8 9 138
3 114 138 216
3 138 9 216
3 158 157 84
3 84 216 10
3 11 84 10
3 138 200 198
3 7 138 198
3 157 216 84
3 136 78 133
3 133 78 79
3 133 194 223
3 136 133 223
3 77 136 192
3 136 77 78
3 130 192 92
3 92 192 136
3 136 223 92
3 77 192 76
3 223 237 92
3 237 200 143
3 194 237 223
3 114 157 148
3 198 200 237
3 114 200 138
3 200 114 124
3 201 92 143
3 143 200 124
3 144 124 148
3 124 114 148
3 157 168 148
3 99 143 124
3 168 157 158
3 237 143 92
3 216 157 114
3 168 170 148
3 84 11 210
3 12 13 225
3 13 14 229
3 210 225 125
3 210 12 225
3 229 15 106
3 229 225 13
3 15 229 14
3 225 229 199
3 210 158 84
3 16 17 206
3 18 19 160
3 17 18 181
3 91 106 206
3 106 16 206
3 206 181 131
3 160 181 18
3 17 181 206
3 229 106 91
3 160 175 238
3 16 106 15
3 181 160 127
3 225 199 125
3 125 158 210
3 125 199 101
3 158 125 83
3 191 83 101
3 83 125 101
3 101 220 235
3 91 159 220
3 199 220 101
3 168 83 214
3 220 199 91
3 158 83 168
3 205 91 131
3 91 206 131
3 131 127 173
3 238 127 160
3 91 199 229
3 238 207 127
3 159 205 94
3 205 131 173
3 173 207 212
3 233 207 238
3 127 207 173
3 173 126 205
3 233 174 218
3 91 205 159
3 127 131 181
3 159 94 220
3 238 87 233
3 210 11 12
3 233 218 207
3 76 192 75
3 192 130 185
3 192 185 75
3 81 74 185
3 185 74 75
3 219 81 185
3 219 185 130
3 130 116 219
3 116 176 219
3 130 201 116
3 201 99 162
3 92 201 130
3 144 170 215
3 143 99 201
3 144 99 124
3 99 144 119
3 162 176 116
3 162 99 119
3 88 119 215
3 215 119 144
3 231 215 170
3 209 162 119
3 170 214 231
3 201 162 116
3 170 144 148
3 234 215 231
3 72 73 81
3 81 73 74
3 81 219 226
3 71 81 226
3 72 3 73
3 70 71 226
3 72 81 71
3 226 176 70
3 69 176 209
3 226 219 176
3 88 234 67
3 176 162 209
3 88 209 119
3 68 209 88
3 68 69 209
3 66 67 234
3 68 88 67
3 66 234 152
3 176 69 70
3 215 234 88
3 234 231 152
3 145 214 191
3 168 214 170
3 83 191 214
3 203 191 235
3 155 152 145
3 152 231 145
3 227 145 203
3 188 203 235
3 145 191 203
3 188 121 203
3 235 94 188
3 145 231 214
3 94 126 163
3 235 220 94
3 212 218 230
3 212 126 173
3 126 94 205
3 126 212 154
3 123 163 154
3 154 163 126
3 135 154 230
3 230 154 212
3 218 80 230
3 188 163 123
3 218 174 80
3 94 163 188
3 191 101 235
3 236 230 80
3 63 155 227
3 155 145 227
3 227 203 121
3 62 227 121
3 64 65 155
3 62 63 227
3 64 155 63
3 121 61 62
3 155 65 152
3 60 123 135
3 121 188 123
3 236 239 58
3 236 135 230
3 154 135 123
3 59 135 236
3 60 61 123
3 58 59 236
3 60 135 59
3 239 57 58
3 123 61 121
3 236 80 239
3 80 97 239
3 152 65 66
3 212 207 218
3 175 160 19
3 20 21 161
3 21 22 161
3 120 175 161
3 175 20 161
3 172 23 202
3 172 161 22
3 23 172 22
3 222 161 172
3 20 175 19
3 24 25 113
3 26 27 183
3 25 26 224
3 202 118 172
3 202 24 113
3 113 224 90
3 183 224 26
3 25 224 113
3 211 224 183
3 211 183 82
3 24 202 23
3 137 202 113
3 184 120 222
3 222 120 161
3 222 172 118
3 153 222 118
3 184 100 87
3 184 87 120
3 129 153 128
3 153 184 222
3 118 128 153
3 153 139 184
3 118 137 128
3 87 238 120
3 128 179 177
3 179 137 90
3 179 90 195
3 90 137 113
3 224 211 90
3 195 90 211
3 89 95 195
3 195 95 179
3 134 208 110
3 195 110 89
3 195 211 110
3 208 89 110
3 110 211 189
3 179 128 137
3 202 137 118
3 177 179 95
3 183 27 82
3 174 233 87
3 28 29 82
3 29 30 232
3 189 82 232
3 82 29 232
3 107 31 103
3 107 232 30
3 31 107 30
3 151 232 107
3 28 82 27
3 32 33 109
3 34 1 35
3 33 34 204
3 193 103 109
3 103 32 109
3 204 35 36
3 204 109 33
3 35 204 34
3 221 109 204
3 32 103 31
3 107 103 169
3 107 169 151
3 151 189 232
3 151 169 166
3 189 151 187
3 134 110 187
3 217 187 166
3 166 142 217
3 98 142 166
3 187 151 166
3 134 187 217
3 166 169 98
3 189 187 110
3 117 193 221
3 193 109 221
3 36 37 221
3 169 103 193
3 104 221 37
3 165 98 117
3 98 193 117
3 117 104 156
3 38 104 37
3 221 104 117
3 98 165 142
3 193 98 169
3 204 36 221
3 38 171 104
3 82 189 211
3 149 217 142
3 184 139 100
3 153 129 139
3 139 129 132
3 100 139 85
3 96 239 97
3 174 100 97
3 96 97 85
3 97 100 85
3 139 132 85
3 132 228 85
3 129 180 132
3 100 174 87
3 147 177 141
3 147 180 129
3 95 122 141
3 141 177 95
3 122 95 89
3 147 141 140
3 132 180 182
3 180 147 105
3 86 141 122
3 105 147 140
3 140 141 86
3 105 140 51
3 122 150 108
3 147 129 177
3 128 177 129
3 180 105 182
3 56 96 228
3 96 85 228
3 228 132 146
3 54 228 146
3 56 57 96
3 54 55 228
3 56 228 55
3 146 53 54
3 57 239 96
3 52 53 182
3 182 53 146
3 105 51 52
3 108 86 122
3 86 50 140
3 50 86 108
3 52 182 105
3 49 50 108
3 140 50 51
3 108 93 49
3 182 146 132
3 122 89 150
3 80 174 97
3 142 111 149
3 186 217 149
3 149 111 190
3 217 186 134
3 93 150 167
3 208 167 150
3 167 186 93
3 149 213 186
3 134 186 167
3 149 190 213
3 190 111 102
3 150 89 208
3 164 165 156
3 156 165 117
3 156 171 164
3 39 171 38
3 156 104 171
3 39 115 171
3 197 196 164
3 164 196 165
3 164 115 178
3 40 115 39
3 164 171 115
3 111 196 102
3 165 196 111
3 134 167 208
3 40 112 115
3 47 93 213
3 213 93 186
3 46 190 102
3 213 190 46
3 47 48 93
3 45 46 102
3 47 213 46
3 102 197 45
3 48 49 93
3 44 197 178
3 197 102 196
3 178 112 43
3 41 112 40
3 178 115 112
3 41 42 112
3 43 44 178
3 2 42 41
3 43 112 42
3 197 44 45
3 164 178 197
3 93 108 150
3 142 165 111
3 238 175 120
POINT_DATA 240
SCALARS P float 1
LOOKUP_TABLE default
1688.926229
-116.588795
-17.568379
-2151.918093
979.033949
1100.278068
937.933541
907.650627
869.646197
859.891757
792.926818
780.321846
740.911976
712.028312
673.519274
646.023062
610.540669
582.131387
547.977864
514.294044
482.054698
448.303500
418.286463
385.891099
349.697691
318.318008
287.596356
252.601590
220.928566
186.946264
158.207711
117.717672
103.237496
26.478405
83.275787
89.851685
-44.989318
41.207745
-28.130534
21.994593
-29.170262
10.113031
-34.223441
-83.865112
-95.316953
-142.621572
-163.285845
-201.986521
-238.540382
-269.671596
-299.585877
-329.752849
-362.486617
-396.053731
-430.073267
-462.114482
-494.797000
-528.156017
-563.528099
-595.955168
-628.382313
-662.984619
-694.372111
-724.104438
-757.245948
-786.999529
-819.889029
-860.914246
-874.740654
-957.253575
-852.728526
-1252.918701
-626.247225
317.458785
-816.396840
-72.127469
137.314492
152.016675
913.569642
179.521033
-220.813895
-843.335263
149.102403
94.140420
506.546291
-185.735629
-176.740658
63.012815
-534.284412
-26.254420
130.915756
271.941436
131.564557
-132.638976
-80.348219
-30.146914
-300.993071
-203.686847
19.691761
-103.712841
-50.847969
92.141472
-80.157783
71.863560
-3.354373
-217.827346
409.842711
102.472316
-159.336168
66.260397
35.858506
-53.461644
-6.352801
215.808733
355.442338
-17.218926
-393.930859
14.012233
167.161876
-365.102053
201.548907
-412.914731
-122.140457
-389.828615
99.269140
301.475309
-76.964853
241.110914
53.680167
-41.337518
-110.344830
256.014572
-174.906964
547.049629
-19.237155
-367.889644
200.538917
148.966515
535.668595
-45.612264
-199.165540
-121.645652
-10.496461
124.870314
-98.621313
-309.364581
-258.120673
-142.437003
109.037342
-66.141942
-96.894659
74.407600
-486.687582
56.563602
-253.977667
-459.122576
-5.918209
333.740449
324.899772
78.966075
339.085694
292.007201
-362.484642
-273.276376
-32.178226
-11.385661
24.968915
-107.065032
101.086597
56.927132
-94.300865
1.671376
265.090146
72.787555
-56.480797
315.672403
-627.309839
-35.393014
-42.311038
48.440110
-155.760772
362.324395
-238.440818
169.516901
61.782179
-272.647987
-76.813438
29.196545
-285.369718
94.088327
-98.778096
-86.232130
-55.923034
29.741836
541.233187
41.238819
-42.505814
-58.334320
614.586601
284.969622
386.904172
-114.155578
241.186174
-296.886415
-2.075451
81.263443
387.238595
75.454830
-24.632369
-531.162988
474.504677
111.393335
-70.696816
-119.447145
-85.582301
-340.041008
530.965066
-15.591263
-64.269149
-410.038139
86.713519
26.499776
186.317008
538.851327
190.351032
455.672168
-454.063426
-438.515481
-280.250294
433.069208
-240.260881
-324.970005
125.738930
68.936631
-501.188393
-80.082953
-343.541869
335.276480
218.395800
-322.423536
SCALARS PRESSURE float 1
LOOKUP_TABLE default
6073056468.241007
-31487889357.295563
23870808038.880714
-33591085598.878098
16269555293.291430
-38161433154.064667
22240072461.906239
-34899532786.535843
20225466852.803658
-46579286833.178703
24881168589.775215
-38309518265.310562
23005462463.425285
-53980128517.853477
23005846634.263550
-23780253638.803055
27992866261.729092
-37713321018.825577
28263562731.974617
-7683204914.594087
33588330060.978153
-27643996459.686764
40676220432.424583
-15687533040.245176
29895440894.759846
-29657279233.318436
39291596824.513397
-17326318530.200455
36544713594.603088
-26690193429.757854
54361336806.243042
-25735290362.532639
13039195167.175930
-32063989072.966988
33926830818.167828
-25151615677.431252
14012271332.811726
-35152426062.839241
26755083704.876225
-28396669509.723473
23633262393.854164
-31333168420.381531
30413527464.518940
-32503733509.127762
17459465288.464973
-43883421844.874519
36520139611.178246
-21458167140.040745
20437181417.484272
-32366586340.193386
29793493414.313404
-17118124573.861233
25907247392.829247
-24844778761.797470
29690288762.605900
-26035127557.209953
25999510421.862526
-27208329724.434326
34157243290.301403
-22492954897.973595
23527569463.827328
-32439118914.066326
43520754944.239761
-22994638714.266655
15412218584.054623
-30213258439.841152
27454335946.866180
-19777999010.189255
22615084138.114578
-28674442708.708378
25185162055.427933
-23805424895.841640
25334277033.289234
-28227826273.948433
29962170849.856739
-25464986545.042732
21922418047.853184
-35175217097.883125
37970470297.908058
-20482164724.519360
16263686321.416109
-27658828815.333298
28824132581.094048
-18317146711.290703
20896004301.948463
-25679672233.396030
26814505108.105293
-23347548881.356590
24566892404.863487
-26836754309.386391
29830085120.378521
-22907805154.360806
21571800624.560482
-33175911600.396629
37403314471.362122
-20102135902.920414
13367833655.887230
-27006126279.106560
25893033091.202164
-18306123129.643101
20408323385.467213
-24953556711.215233
24520928344.774609
-23335776775.449253
22888219540.673618
-25797734831.663506
28916618394.403145
-22668434389.889717
20930206427.930538
-32171691591.503502
36076476920.920288
-19278711041.895222
15016666383.166599
-25735731457.709106
24502116597.277050
-17144696979.777382
20041474283.436676
-23845531741.126442
23574799023.984383
-21814864731.086731
22588967733.221264
-25066777029.713505
27501407188.563648
-22164449114.309677
19914428842.900852
-30810275699.147190
34756725773.769531
-18893232624.487335
13119393471.831200
-24133806488.806236
23870623945.074024
-16407010515.005573
18821649135.140778
-22900277446.577522
22776360942.284786
-20946009422.358604
21539359049.729053
-24038755073.859055
26251444228.518379
-21155480139.446259
19567623197.705559
-29726149075.397923
33581585553.542145
-18086079286.616127
12938446957.966705
-23050964496.114677
22761760027.593174
-15483881076.991827
18196370360.047493
-21354864897.455120
22056919436.251896
-20039892479.746651
20969795116.492458
-22591251539.969013
25573124263.018650
-20256094080.045769
18579038462.954727
-28796775602.285221
32232133090.903107
-17407742679.517437
11891463244.587618
-21865722194.313534
21350372840.233498
-14903581058.806330
17429482004.047199
-20517670111.179840
20572164998.180424
-19345435507.520172
19940416471.082825
-21927818937.645054
24492676434.997520
-19101412271.428635
17877244011.362206
-27656757792.780968
31121385508.648895
-16695204374.037731
11578755119.587774
-20650191421.717010
20208401468.462147
-14132551162.586880
16561670252.921923
-19553480086.381828
19607194103.318882
-18440120200.203518
18774174885.527939
-21186279385.107479
23438599618.564766
-18319853138.891537
16860602982.402636
-26790758795.233616
29715001051.711155
-15979441351.759085
10648276998.904114
-19421056216.196835
19103960611.922634
-13397561743.955488
15551777745.804031
-18605206639.757618
18666011452.398228
-17504138024.449883
17831659818.572826
-20021204097.376560
22573582714.090439
-17428120871.690655
16094465428.676121
-25560684376.670799
28602821338.797253
-15362099717.826765
10058428880.762533
-18290646082.233040
17992097031.662342
-12501152852.957897
14654751659.358831
-17639756019.256546
17633905305.701771
-16537364403.480316
17055999982.247654
-18960920804.185368
21494660195.375786
-16692374141.232973
15310370876.888849
-24255860284.105015
27477112635.440388
-14617311309.630182
9213635867.265558
-16888856892.851032
17054875954.982880
-11744802451.462317
13781782329.474331
-16415933833.782814
16746557578.618202
-15613510084.794935
16247354713.550854
-17900524896.956757
20439858869.224506
-15731068073.343067
14726170744.755899
-23175061047.913326
26198037058.995449
-13897637946.360645
8743706605.836184
-15679077706.957241
15836711819.457922
-10921484378.950399
13097562965.405344
-15274007201.666368
15752159009.374733
-14777469667.944553
15315872483.167105
-16832228434.007130
19407702234.427746
-15089485725.220463
13888777588.961222
-21921049479.299953
24978690361.037327
-13346475626.668753
8078638766.231703
-14458035031.027472
14653477644.478296
-10231292524.154480
12283126430.439461
-14289233059.716759
14727430120.302462
-13735480920.798153
14510131976.551044
-15880496706.816874
18162663886.651405
-14338745759.799261
13264132281.322367
-20654486787.888832
23704166856.954250
-12791026106.082296
7399192691.585735
-13286074850.569883
13409589257.237448
-9585445685.022966
11231084204.845398
-13415048428.488199
13744756320.046335
-12843191503.033798
13574376784.577034
-14863078413.542511
16971693733.319031
-13658957960.260532
12513326820.547592
-19464359926.188419
22431284887.001259
-12080075579.419136
6736526015.037072
-12100340909.566895
12325234743.299850
-8707059659.249222
10307773376.579611
-12435156647.091204
12722852501.440292
-11950196981.112005
12684519266.361284
-13965327984.710423
15842844219.112299
-12642264018.339710
11898677054.290247
-18343542332.311417
21185758181.832092
-11385428286.624962
5896452179.736194
-10773496023.047661
11378690114.799812
-7884576591.960938
9584678059.794289
-11151464303.847799
11882109841.643473
-11075649348.251118
11689930073.692419
-12899595645.576418
14899048855.615664
-11913232591.644033
11107415181.396070
-17191130474.884285
19909590999.589798
-10744661483.965462
5242675130.236270
-9505996412.846087
10054212554.235483
-7337345498.732405
8720812710.065311
-10132848616.865459
10786889813.268278
-10175027257.555307
10811489690.311981
-11882051004.454588
13730448320.076153
-11096424751.092949
10435954768.669680
-15913434425.142441
18729800657.921371
-10170438549.442188
4882891029.619470
-8351587582.291030
8790262321.135387
-6522231395.627907
7899781234.291890
-9107734474.717649
9833496190.508068
-9090570365.748182
10061583272.510448
-10801437431.733320
12655855818.921671
-10457956861.973736
9660486977.098141
-14695865107.256527
17490981444.272194
-9495893736.599001
4016661879.250385
-7094176596.213309
7768058202.666578
-5691600829.159765
7000955721.000852
-8138326749.259153
8833680298.822266
-8297493484.229599
9117742877.726109
-10056960461.512274
11376202671.637743
-9220978002.285751
9023147706.004602
-13683656717.315844
16264761946.035524
-8811942734.991985
3329018843.348677
-5799339499.962295
6727465512.345932
-4941986269.821054
6216419533.592180
-6931568163.010380
7869871524.029672
-7486409970.098163
7995784261.118827
-8936514077.921495
10739211727.790602
-8419800004.488987
8036529838.075859
-12791884264.734995
14975689886.794975
-7856545706.477288
2681067715.244761
-4680103397.535979
5386280089.586382
-4320146019.312237
5350546095.967767
-5933372744.488529
6831679757.316640
-6451874989.749944
7213547155.362184
-8130443411.061085
9679848008.558107
-7108755701.424204
7234990588.345932
-11902676233.498686
13762235680.981411
-7276481891.265495
2088579263.436103
-3336607938.393563
4323997604.953136
-3489714621.131424
4514746426.731836
-4911071249.915810
5833482040.996504
-5602953024.675211
6054710946.460017
-6980063805.157335
9034425857.574759
-6640039930.610682
6303807583.763795
-10528732093.297892
12557172610.739967
-6514866475.740808
1328723737.973440
-2253226991.022657
3115192566.708389
-2677849343.162933
3713881095.290265
-3832060311.681848
4984223375.502966
-4539903314.406806
5376179965.431594
-5971702859.686194
7494836553.594253
-6049782687.435418
5647858716.258138
-9020730249.630362
11503298790.558012
-6493365147.261418
754375846.472175
-882176145.216009
2094004630.730816
-2021816637.528965
2592468441.706721
-2898096609.895728
3837197751.710448
-3904596865.112978
4501176014.856017
-4853841450.906530
6328525544.436214
-5115309388.463449
5154093825.858036
-7929185418.924294
10124040346.432608
-4956678597.199003
-83337990.507448
334750450.583569
1096158121.241822
-1198856797.069797
2121354803.382140
-1387995750.778373
2808499978.403498
-3063976395.402682
3671267437.321654
-3869694253.542420
5319700537.293262
-4268532372.401837
4158336277.276766
-7038658828.867171
8827958302.014954
-5350684088.371474
-419169796.322115
1065677924.162742
-739247579.922344
-440827601.844277
1152234890.089561
-974923419.380901
1673776463.009320
-1955263243.218638
2595818139.215738
-2972184568.066304
4483548273.197014
-3002421105.469098
3691644376.381916
-5591517530.892059
7802780460.866974
-3200900567.331843
-1319110915.452186
3063762678.109952
-635462007.558865
812464354.534358
233336825.217516
362772560.872694
1229935015.576509
-918555365.015361
1759842973.752085
-2131240359.697709
3290532125.236995
-2913946893.360616
2148431959.394028
-5201611416.938178
6006625339.044517
-4139219195.675169
-1323581645.056980
1315433016.882686
-3169501925.737597
1424843250.419819
-822826262.495013
189124187.305926
-600658601.297119
584568495.819174
1153512464.953665
-1654130562.269244
2289429974.166227
-179771494.138132
2949756701.663057
-3229813725.657129
5248096688.405902
-1099667009.013179
