# vtk DataFile Version 2.0
patchtest_tri3_mix
ASCII
DATASET POLYDATA
POINTS 2000 float
0.000000 -6.000000 0.000000
48.000000 -6.000000 0.000000
48.000000 6.000000 0.000000
0.000000 6.000000 0.000000
0.545455 -6.000000 0.000000
1.090909 -6.000000 0.000000
1.636364 -6.000000 0.000000
2.181818 -6.000000 0.000000
2.727273 -6.000000 0.000000
3.272727 -6.000000 0.000000
3.818182 -6.000000 0.000000
4.363636 -6.000000 0.000000
4.909091 -6.000000 0.000000
5.454545 -6.000000 0.000000
6.000000 -6.000000 0.000000
6.545455 -6.000000 0.000000
7.090909 -6.000000 0.000000
7.636364 -6.000000 0.000000
8.181818 -6.000000 0.000000
8.727273 -6.000000 0.000000
9.272727 -6.000000 0.000000
9.818182 -6.000000 0.000000
10.363636 -6.000000 0.000000
10.909091 -6.000000 0.000000
11.454545 -6.000000 0.000000
12.000000 -6.000000 0.000000
12.545455 -6.000000 0.000000
13.090909 -6.000000 0.000000
13.636364 -6.000000 0.000000
14.181818 -6.000000 0.000000
14.727273 -6.000000 0.000000
15.272727 -6.000000 0.000000
15.818182 -6.000000 0.000000
16.363636 -6.000000 0.000000
16.909091 -6.000000 0.000000
17.454545 -6.000000 0.000000
18.000000 -6.000000 0.000000
18.545455 -6.000000 0.000000
19.090909 -6.000000 0.000000
19.636364 -6.000000 0.000000
20.181818 -6.000000 0.000000
20.727273 -6.000000 0.000000
21.272727 -6.000000 0.000000
21.818182 -6.000000 0.000000
22.363636 -6.000000 0.000000
22.909091 -6.000000 0.000000
23.454545 -6.000000 0.000000
24.000000 -6.000000 0.000000
24.545455 -6.000000 0.000000
25.090909 -6.000000 0.000000
25.636364 -6.000000 0.000000
26.181818 -6.000000 0.000000
26.727273 -6.000000 0.000000
27.272727 -6.000000 0.000000
27.818182 -6.000000 0.000000
28.363636 -6.000000 0.000000
28.909091 -6.000000 0.000000
29.454545 -6.000000 0.000000
30.000000 -6.000000 0.000000
30.545455 -6.000000 0.000000
31.090909 -6.000000 0.000000
31.636364 -6.000000 0.000000
32.181818 -6.000000 0.000000
32.727273 -6.000000 0.000000
33.272727 -6.000000 0.000000
33.818182 -6.000000 0.000000
34.363636 -6.000000 0.000000
34.909091 -6.000000 0.000000
35.454545 -6.000000 0.000000
36.000000 -6.000000 0.000000
36.545455 -6.000000 0.000000
37.090909 -6.000000 0.000000
37.636364 -6.000000 0.000000
38.181818 -6.000000 0.000000
38.727273 -6.000000 0.000000
39.272727 -6.000000 0.000000
39.818182 -6.000000 0.000000
40.363636 -6.000000 0.000000
40.909091 -6.000000 0.000000
41.454545 -6.000000 0.000000
42.000000 -6.000000 0.000000
42.545455 -6.000000 0.000000
43.090909 -6.000000 0.000000
43.636364 -6.000000 0.000000
44.181818 -6.000000 0.000000
44.727273 -6.000000 0.000000
45.272727 -6.000000 0.000000
45.818182 -6.000000 0.000000
46.363636 -6.000000 0.000000
46.909091 -6.000000 0.000000
47.454545 -6.000000 0.000000
48.000000 -5.454545 0.000000
48.000000 -4.909091 0.000000
48.000000 -4.363636 0.000000
48.000000 -3.818182 0.000000
48.000000 -3.272727 0.000000
48.000000 -2.727273 0.000000
48.000000 -2.181818 0.000000
48.000000 -1.636364 0.000000
48.000000 -1.090909 0.000000
48.000000 -0.545455 0.000000
48.000000 -0.000000 0.000000
48.000000 0.545455 0.000000
48.000000 1.090909 0.000000
48.000000 1.636364 0.000000
48.000000 2.181818 0.000000
48.000000 2.727273 0.000000
48.000000 3.272727 0.000000
48.000000 3.818182 0.000000
48.000000 4.363636 0.000000
48.000000 4.909091 0.000000
48.000000 5.454545 0.000000
47.454545 6.000000 0.000000
46.909091 6.000000 0.000000
46.363636 6.000000 0.000000
45.818182 6.000000 0.000000
45.272727 6.000000 0.000000
44.727273 6.000000 0.000000
44.181818 6.000000 0.000000
43.636364 6.000000 0.000000
43.090909 6.000000 0.000000
42.545455 6.000000 0.000000
42.000000 6.000000 0.000000
41.454545 6.000000 0.000000
40.909091 6.000000 0.000000
40.363636 6.000000 0.000000
39.818182 6.000000 0.000000
39.272727 6.000000 0.000000
38.727273 6.000000 0.000000
38.181818 6.000000 0.000000
37.636364 6.000000 0.000000
37.090909 6.000000 0.000000
36.545455 6.000000 0.000000
36.000000 6.000000 0.000000
35.454545 6.000000 0.000000
34.909091 6.000000 0.000000
34.363636 6.000000 0.000000
33.818182 6.000000 0.000000
33.272727 6.000000 0.000000
32.727273 6.000000 0.000000
32.181818 6.000000 0.000000
31.636364 6.000000 0.000000
31.090909 6.000000 0.000000
30.545455 6.000000 0.000000
30.000000 6.000000 0.000000
29.454545 6.000000 0.000000
28.909091 6.000000 0.000000
28.363636 6.000000 0.000000
27.818182 6.000000 0.000000
27.272727 6.000000 0.000000
26.727273 6.000000 0.000000
26.181818 6.000000 0.000000
25.636364 6.000000 0.000000
25.090909 6.000000 0.000000
24.545455 6.000000 0.000000
24.000000 6.000000 0.000000
23.454545 6.000000 0.000000
22.909091 6.000000 0.000000
22.363636 6.000000 0.000000
21.818182 6.000000 0.000000
21.272727 6.000000 0.000000
20.727273 6.000000 0.000000
20.181818 6.000000 0.000000
19.636364 6.000000 0.000000
19.090909 6.000000 0.000000
18.545455 6.000000 0.000000
18.000000 6.000000 0.000000
17.454545 6.000000 0.000000
16.909091 6.000000 0.000000
16.363636 6.000000 0.000000
15.818182 6.000000 0.000000
15.272727 6.000000 0.000000
14.727273 6.000000 0.000000
14.181818 6.000000 0.000000
13.636364 6.000000 0.000000
13.090909 6.000000 0.000000
12.545455 6.000000 0.000000
12.000000 6.000000 0.000000
11.454545 6.000000 0.000000
10.909091 6.000000 0.000000
10.363636 6.000000 0.000000
9.818182 6.000000 0.000000
9.272727 6.000000 0.000000
8.727273 6.000000 0.000000
8.181818 6.000000 0.000000
7.636364 6.000000 0.000000
7.090909 6.000000 0.000000
6.545455 6.000000 0.000000
6.000000 6.000000 0.000000
5.454545 6.000000 0.000000
4.909091 6.000000 0.000000
4.363636 6.000000 0.000000
3.818182 6.000000 0.000000
3.272727 6.000000 0.000000
2.727273 6.000000 0.000000
2.181818 6.000000 0.000000
1.636364 6.000000 0.000000
1.090909 6.000000 0.000000
0.545455 6.000000 0.000000
0.000000 5.454545 0.000000
0.000000 4.909091 0.000000
0.000000 4.363636 0.000000
0.000000 3.818182 0.000000
0.000000 3.272727 0.000000
0.000000 2.727273 0.000000
0.000000 2.181818 0.000000
0.000000 1.636364 0.000000
0.000000 1.090909 0.000000
0.000000 0.545455 0.000000
0.000000 0.000000 0.000000
0.000000 -0.545455 0.000000
0.000000 -1.090909 0.000000
0.000000 -1.636364 0.000000
0.000000 -2.181818 0.000000
0.000000 -2.727273 0.000000
0.000000 -3.272727 0.000000
0.000000 -3.818182 0.000000
0.000000 -4.363636 0.000000
0.000000 -4.909091 0.000000
0.000000 -5.454545 0.000000
17.708487 0.179487 0.000000
22.387664 -1.870417 0.000000
25.092244 -0.983996 0.000000
15.902754 -2.646165 0.000000
36.418995 -1.057147 0.000000
46.736750 -3.129677 0.000000
20.259890 -4.279372 0.000000
29.402929 -5.442493 0.000000
6.683439 -4.745851 0.000000
40.616356 2.337113 0.000000
1.760706 -2.087458 0.000000
28.007570 -2.264152 0.000000
41.746132 5.389755 0.000000
12.025572 -1.433312 0.000000
23.984664 -2.975446 0.000000
18.613598 1.098085 0.000000
45.473609 1.365315 0.000000
9.409653 -1.003812 0.000000
0.625129 -4.124476 0.000000
18.999524 -0.834324 0.000000
35.973560 -3.287628 0.000000
1.826885 -3.550655 0.000000
23.663517 -1.440492 0.000000
29.225690 -4.584976 0.000000
23.619117 0.971676 0.000000
22.353567 -4.264815 0.000000
11.027442 5.364262 0.000000
43.848605 -2.521330 0.000000
4.745612 2.909457 0.000000
40.385622 2.862032 0.000000
2.235605 4.099591 0.000000
33.869471 -4.687360 0.000000
3.073245 -1.071377 0.000000
19.977959 -3.608559 0.000000
1.813008 -4.768289 0.000000
38.005007 4.313731 0.000000
9.793485 0.612749 0.000000
11.600786 -0.625220 0.000000
47.386556 -4.701160 0.000000
32.302958 -0.635164 0.000000
24.807103 -4.481546 0.000000
40.417779 3.751574 0.000000
13.161839 -4.102876 0.000000
41.604964 -1.100035 0.000000
26.974585 1.880020 0.000000
17.541032 -4.133803 0.000000
17.215041 -4.885989 0.000000
23.434037 -5.412369 0.000000
34.920500 1.967203 0.000000
43.339568 1.075256 0.000000
32.563351 -1.964234 0.000000
46.236706 1.096071 0.000000
8.365657 -2.852654 0.000000
3.870477 2.793417 0.000000
45.194167 0.415338 0.000000
17.712599 2.565318 0.000000
0.622511 -3.491487 0.000000
15.697686 4.903864 0.000000
23.872999 -1.022865 0.000000
5.261992 -1.872515 0.000000
29.394059 1.696135 0.000000
39.025606 5.173811 0.000000
7.709038 2.345202 0.000000
29.797016 1.561852 0.000000
41.199690 -2.463510 0.000000
19.444191 2.158031 0.000000
38.303872 -0.349722 0.000000
43.892491 -2.955114 0.000000
20.369271 -1.075003 0.000000
28.426178 2.490794 0.000000
11.933168 -4.946124 0.000000
21.953316 -1.228030 0.000000
47.368254 1.820462 0.000000
30.554026 1.162586 0.000000
34.555166 -1.921399 0.000000
27.739096 -0.081847 0.000000
17.892744 1.695870 0.000000
9.085865 -3.171830 0.000000
15.720615 3.047446 0.000000
40.340051 -1.445019 0.000000
9.194622 -4.101633 0.000000
41.800260 -1.948433 0.000000
26.958956 4.899541 0.000000
17.546907 -2.726922 0.000000
3.365947 4.601353 0.000000
31.171644 -4.107563 0.000000
24.093779 -5.460777 0.000000
6.841634 -3.496183 0.000000
3.491874 3.411336 0.000000
38.077470 4.680489 0.000000
38.374149 -0.794025 0.000000
3.048991 -4.792833 0.000000
31.963509 -5.412655 0.000000
47.393999 -5.349180 0.000000
44.956908 -5.388979 0.000000
45.423350 2.162716 0.000000
15.072557 -0.112177 0.000000
6.740620 2.339157 0.000000
44.705132 1.193064 0.000000
25.560926 -5.449918 0.000000
4.904388 5.302000 0.000000
27.907919 -0.876772 0.000000
15.979929 -1.842701 0.000000
19.825067 0.490972 0.000000
24.288793 -3.884595 0.000000
35.205749 -1.849577 0.000000
37.111915 -1.174529 0.000000
11.103023 0.088419 0.000000
15.728078 3.620050 0.000000
32.990312 1.500289 0.000000
28.184654 -5.188766 0.000000
38.895271 0.115299 0.000000
4.964583 -3.710795 0.000000
19.788375 1.032853 0.000000
29.734945 -4.313466 0.000000
5.761982 2.172154 0.000000
9.627048 3.860416 0.000000
20.398585 -3.464328 0.000000
28.773160 -5.432284 0.000000
40.620839 -3.211364 0.000000
23.852661 5.398183 0.000000
47.396638 -2.715197 0.000000
19.107037 -2.083198 0.000000
6.101670 5.431091 0.000000
15.133641 -1.591288 0.000000
34.240628 4.765793 0.000000
24.364172 0.294338 0.000000
45.154708 1.734496 0.000000
46.769824 -3.638585 0.000000
39.499717 2.570474 0.000000
[...]
POINT_DATA 2000
SCALARS P float 1
LOOKUP_TABLE default
866.754546
0.207844
-0.104998
-866.524184
856.882822
847.010966
837.163656
827.295162
817.410615
807.575227
797.780521
787.886939
778.056532
768.218901
758.345890
748.493973
738.618475
728.753963
718.929918
709.083631
699.214494
689.375958
679.535221
669.684177
659.831518
650.005312
640.103814
630.276586
620.444372
610.601375
600.714785
590.901915
581.049138
571.213917
561.349376
551.508591
541.667675
531.840291
522.015858
512.080396
502.272605
492.384615
482.544210
472.695442
462.875863
453.029084
443.170983
433.347494
423.455306
413.606316
403.790062
393.929617
384.083501
374.150828
364.367109
354.533425
344.677425
334.787329
324.993580
315.145717
305.277172
295.446133
285.614708
275.735697
265.907355
256.014493
246.191815
236.354366
226.495861
216.649659
206.834109
196.912854
187.113141
177.280726
167.388876
157.549434
147.693203
137.868363
128.008605
118.130870
108.350772
98.490499
88.659070
78.884616
68.911753
59.096047
49.239019
39.423248
29.645604
19.774616
9.840889
-0.013589
0.042586
-0.035580
-0.031588
0.031704
-0.030365
0.078917
0.048208
0.024657
0.028378
-0.069333
-0.236915
-0.078453
-0.163369
-0.080074
0.024346
-0.011270
-0.052858
-0.056421
-0.069879
-0.018973
-9.839554
-19.727409
-29.536677
-39.385237
-49.244121
-59.110837
-68.942289
-78.782380
-88.640809
-98.491280
-108.317697
-118.185262
-128.056211
-137.889140
-147.710444
-157.615023
-167.478345
-177.323257
-187.117856
-197.022487
-206.852914
-216.679787
-226.489894
-236.411834
-246.059917
-255.996144
-265.890666
-275.752746
-285.583920
-295.435492
-305.294716
-315.118650
-325.036379
-334.835924
-344.717897
-354.542134
-364.391906
-374.256731
-384.114844
-393.951756
-403.773960
-413.655215
-423.486808
-433.331491
-443.190723
-453.048702
-462.885693
-472.728341
-482.579445
-492.429023
-502.276597
-512.124338
-521.982524
-531.838222
-541.663548
-551.471908
-561.374376
-571.206783
-581.067992
-590.918110
-600.754854
-610.614396
-620.477987
-630.332192
-640.185650
-650.003184
-659.828901
-669.686630
-679.377396
-689.424002
-699.206052
-709.116813
-718.932966
-728.828881
-738.667678
-748.503044
-758.322737
-768.231594
-778.061860
-787.959537
-797.705659
-807.534901
-817.351203
-827.218949
-837.080246
-846.941099
-856.883900
-787.806379
-709.067484
-630.290441
-551.504781
-472.698493
-393.924381
-315.140777
-236.363327
-157.501755
-78.728928
0.081197
78.795973
157.636543
236.070808
315.105436
393.964499
472.547242
551.517609
630.307113
709.129926
787.808186
-16.437668
144.212316
67.828544
255.552459
36.896092
11.914312
357.268248
304.620128
590.073541
-51.906777
290.470879
136.193367
-101.444452
155.169797
214.978225
-97.041113
-10.428716
116.537945
587.973510
72.760652
119.047449
493.357010
105.429521
259.067679
-71.427635
329.157112
-596.807903
31.502214
-378.758515
-65.594561
-564.552960
199.339250
144.890954
304.213549
662.736091
-129.761011
-70.422902
68.490143
8.660586
29.978527
312.796560
-85.629982
430.165869
21.226775
-118.784392
378.804615
452.638785
400.113248
-77.467041
-14.921209
91.243758
-5.820518
340.259564
-370.967034
-3.491709
-233.817684
497.837940
-476.683941
74.350044
240.856790
-94.874627
-139.749339
-284.404004
-85.591843
50.485650
-185.367446
10.221338
36.496966
89.428233
-146.678800
536.849033
96.278813
-3.436805
-61.051638
77.765838
5.172819
-153.593557
371.399137
-295.968152
33.266101
478.975481
36.432055
-310.235142
249.854138
-618.108351
208.055838
392.840290
433.049087
-456.898151
-139.736848
22.978429
648.323067
261.193807
9.764107
49.335793
-16.845098
11.154458
-290.416986
-11.807435
367.999296
-687.637561
53.067240
177.432790
-41.596349
277.112989
71.251579
38.549729
-9.810673
-351.560538
-67.850856
309.414327
-3.152739
480.567715
-87.813739
237.075330
-276.136835
-445.791466
287.820963
314.302450
71.317752
-392.261906
4.962264
181.082843
-684.778506
157.462329
-197.356038
-21.086520
-14.763759
13.463556
-65.758560
69.230016
184.209965
124.060295
-134.958493
345.652549
133.414587
74.031734
441.037734
-187.265668
45.902107
385.464526
-33.269648
-269.896866
-184.767776
33.813262
-26.411778
635.550907
-576.719160
-420.405781
561.397387
-301.833315
-74.872674
108.825382
52.282005
312.406524
-6.036718
56.030335
11.509642
-3.109577
3.582579
-19.540400
-425.386539
-44.742202
-143.484600
-39.647342
10.217528
144.031842
98.321746
-257.780576
90.605291
107.229880
-381.910071
-312.070023
-15.573818
139.874205
-22.349141
-201.853644
421.969966
-215.527771
337.089813
223.244283
-13.248765
119.867688
-236.490556
-562.224829
677.398774
282.325991
-115.374209
-60.164743
317.281516
-121.271726
-338.055733
495.050970
-41.469553
428.430441
23.634031
-150.391932
530.572251
-27.167300
54.782035
-319.922193
9.742533
-8.829458
166.783051
-53.593374
-106.278359
-535.972257
420.717712
262.186248
23.322793
-737.713939
429.922998
-87.574099
-463.380232
260.805309
-28.741982
-4.929060
406.376401
46.521621
-201.249085
300.932040
-157.262619
248.940621
-51.476043
-472.780503
108.680427
-390.683303
460.301224
-134.027210
167.060227
147.403227
131.216246
365.098707
-511.149242
244.755895
118.262385
482.829018
-548.306815
85.084339
38.555958
-672.347943
35.896889
60.306307
-115.803793
-752.012857
0.744105
-41.347601
30.974104
-168.417916
248.434827
-114.910670
261.958197
436.454414
292.366596
7.155509
-46.742297
-270.023274
164.020769
232.288382
83.336976
99.123577
-322.277027
-351.220802
360.778151
-148.906487
-132.940634
61.109268
-402.622094
-301.232362
-5.354000
408.097861
242.052470
239.742464
34.377903
-64.654230
-171.007746
-22.389422
339.505370
-345.653635
177.590804
184.233207
-120.126570
-159.165999
-44.148464
-82.188129
-54.266052
258.645702
12.533361
-25.216412
-90.326559
-498.893059
440.022777
172.076031
-31.075436
357.402749
87.381401
-267.608338
-269.759743
-14.344134
-238.187960
-510.521142
-31.906892
93.757224
-147.768891
-275.952322
-212.481671
-83.145626
339.166922
-106.137105
15.463434
-25.267719
138.801418
21.788525
485.291984
-100.427987
-69.291618
278.367214
-16.631413
332.450290
480.707554
20.057089
154.910999
-201.733643
155.646005
241.938925
209.343386
475.217789
-34.846356
93.240405
104.238400
-241.684605
-10.115928
178.296913
48.652323
27.240085
-27.605859
59.540200
-226.017322
24.530939
-3.655240
271.083815
-237.746116
-17.900956
-222.749465
-201.578324
-46.103712
29.826915
-26.732857
163.809157
125.166185
-491.703442
-102.157450
610.181579
-158.948840
95.584919
75.770850
-569.573183
415.306767
-6.797015
26.941160
-191.120017
-12.990939
-181.510313
193.300110
-52.877608
-444.990728
-236.421291
466.484773
-178.981493
162.107270
6.952710
-593.235295
92.577331
96.721018
-246.868619
-11.120418
-56.864722
116.161974
58.803911
111.616103
67.457517
48.465489
272.739865
-191.486211
217.116811
-98.111763
-112.454927
70.529195
530.197585
137.915963
110.478939
219.980095
284.340179
-209.089561
-219.805074
-401.018526
-387.733260
-26.941574
191.285504
-136.340858
580.527951
-88.518452
-544.432563
110.910439
380.370794
24.120481
-310.747372
6.040065
-74.045115
286.812202
-284.549624
151.468716
-0.376978
-91.323110
402.016059
349.335407
-50.700050
-570.892664
-38.907364
9.078016
-88.186728
67.407903
-43.370315
145.411695
-389.977356
-291.773574
247.813474
180.882106
181.772587
-325.062735
246.010667
-171.665978
64.377319
300.751534
-424.442867
318.076004
23.289513
-191.738189
67.221170
-60.785927
167.625131
-28.478597
-224.601947
338.507597
-320.895467
602.348589
162.805233
71.655066
15.071940
432.462780
176.235688
-12.272061
573.876146
-389.007963
-99.062736
109.552728
-149.024694
-34.059631
-232.039164
-296.347435
-99.984155
-65.115330
405.910906
-128.501732
41.410947
-47.468513
38.422708
24.475996
-661.029903
-633.586539
-229.270671
-107.837657
-40.946314
-44.310221
2.731076
187.213906
-135.126206
-146.166643
-192.789087
115.034707
-220.999134
80.466525
199.696586
-42.652834
50.455467
-170.943445
121.045518
-140.246481
384.452094
28.471128
628.673011
13.397087
26.384771
210.237923
-339.655869
41.875319
-86.361507
39.596579
-457.162978
-214.746289
-85.723498
-434.735563
-29.961782
-147.106362
-39.942866
-112.557402
-62.710027
-323.714544
-115.259040
-102.424507
212.645375
58.241066
390.075261
-352.248496
-483.882835
522.504375
-92.072339
-113.139001
-764.164222
138.149551
336.772163
-296.553430
-48.869331
-351.158074
-116.834892
-73.139356
130.233119
-29.032324
15.381621
-645.306482
-75.625337
180.032557
-122.178153
-340.852713
41.621366
-635.470150
48.273383
80.536402
-4.867737
-6.520927
175.437824
-371.366709
-36.843443
-164.595675
-215.274658
345.357660
-35.193381
687.205728
55.976605
162.978427
252.798724
151.479810
418.170686
231.561516
120.862001
-657.871609
149.292383
-350.563835
-31.401250
-99.101050
-433.879554
25.677002
292.639662
295.678415
-362.615216
-59.102016
-62.726374
554.482126
256.112161
662.809572
-325.156576
410.808823
65.024318
346.543158
-37.981380
297.651178
22.306870
-452.458164
103.197198
438.704244
163.647062
268.529052
-338.214663
-12.454922
-308.358077
-23.305700
-56.273164
-373.750824
419.682583
-350.407421
218.728868
-327.065018
58.585615
65.952113
198.587022
228.944662
30.344243
207.945242
-0.096844
-187.653230
-188.734670
6.207754
-93.755952
-192.967678
-2.524600
-69.098037
-659.130561
-119.893193
31.861727
51.359671
-21.968467
-264.172452
-393.393521
-296.725061
-152.153922
6.688704
-609.891266
-23.181841
-168.524698
20.883441
477.219557
-431.965401
26.347856
-230.601933
52.318241
243.284779
-484.013923
-394.524891
-470.953119
136.320378
50.534507
518.930764
43.713630
55.663549
85.320484
-116.235210
21.967340
-275.631968
-589.430894
104.433474
-197.500715
37.740381
-117.638451
-7.888650
352.544216
275.944429
-208.231913
-271.029953
-31.380356
86.858372
-251.482586
69.500880
-53.460603
62.095174
184.844394
-627.056148
-42.221567
-396.148219
7.919505
359.790331
-184.338450
80.118117
-30.300745
238.913032
162.173220
-246.721245
-257.201508
252.039508
592.794749
-47.261629
185.365582
20.345528
117.657868
-359.204672
504.459714
-484.369186
-147.373046
717.243665
25.304620
183.004364
83.431493
-155.969548
117.985560
355.252446
63.374636
-163.376245
76.969840
51.002283
278.460832
325.424848
15.085678
-275.047456
7.631790
80.077775
410.341156
250.895040
105.073081
159.448528
-345.533487
92.857243
161.396091
-187.162180
-24.448055
535.227759
-520.787611
736.610328
-540.062568
-287.148838
-24.417753
175.761059
-21.081824
211.244786
285.719271
93.219483
-220.044177
131.025119
-34.505347
-55.295316
-265.194623
73.237052
-92.067026
185.913362
-40.749302
251.736683
-305.788748
-172.037232
-31.796371
-161.639386
33.556028
-181.301223
-153.772222
-146.199700
576.712509
58.427289
581.259215
-117.817099
1.450369
-70.835109
382.037698
386.705568
-697.906222
386.808292
-92.874333
90.179287
-159.555701
416.105635
746.888287
756.046101
-265.037410
-501.067834
-721.378269
-20.994643
43.647527
-22.075581
153.531344
-114.400299
102.508241
-379.709618
15.965246
-105.607105
345.943306
273.202200
51.044794
-209.601828
-65.467105
238.465095
63.135455
237.434796
412.402923
414.896616
-259.934557
71.899373
-559.137595
-358.833274
-11.077150
315.303447
115.169116
26.748954
-616.341222
-236.240396
12.688362
-40.788205
-16.058919
303.142286
-604.557892
197.710929
28.402417
-79.916737
-64.477128
119.387090
-174.323413
23.289982
-82.770572
139.808775
-17.526036
-4.069087
-82.476056
-115.645991
-52.803112
15.471082
48.423031
-316.125554
-59.017409
248.083491
549.486800
-569.053999
-333.372604
-177.894583
94.074965
334.734157
-43.914354
6.999428
154.622234
366.137174
-251.309497
-21.524720
-457.936392
246.569416
-167.925435
219.200408
7.614093
11.217625
-433.626436
-492.768349
-45.292208
288.892997
-292.208929
90.637432
366.029064
390.291702
129.494944
-106.754588
-299.156060
486.629555
-426.558904
-15.882991
10.667604
-406.988820
423.310450
213.823185
92.548091
677.475021
40.667433
-312.955005
-672.365080
-27.673776
-579.859410
-87.013489
29.135007
0.203410
-163.136842
-16.900839
-99.967478
303.626133
-8.646734
38.332916
-110.531755
236.407852
-17.678137
144.766564
-291.142779
-647.039666
-270.416658
-531.409504
83.481061
70.979828
-509.855974
-7.597622
-145.978800
-193.958739
-205.149049
305.821953
173.547016
-330.587501
-260.593395
23.020724
-352.809303
-59.639086
-165.843298
765.566903
-130.908516
-144.593617
-40.119973
-255.827296
-286.431815
207.355059
-223.287286
-169.532571
9.070464
-402.249382
-19.936970
90.426105
-6.856552
-321.071388
-256.498867
64.605181
259.089234
440.082225
253.843978
-118.624066
-3.728191
125.002921
-167.719406
-87.386336
-47.908401
-280.435361
-18.228873
159.189984
-377.837862
298.211048
-83.378973
-212.458736
-172.473016
52.300139
357.867754
-51.868536
155.871347
476.680024
15.056064
135.524521
-104.696355
96.668780
20.150108
605.117172
-208.367989
163.472844
-264.550036
474.936959
112.981333
417.014093
227.749568
453.074996
328.935615
266.107938
180.461627
22.211154
-435.367181
-9.613296
25.558752
2.133143
342.280592
8.127900
279.938745
1.165755
-100.947706
28.115412
46.986144
-6.629624
136.777313
-12.295333
5.721509
-223.029470
-411.069311
493.092515
303.705086
29.612592
-52.432409
103.839362
200.963270
-19.155949
-228.086775
433.856436
-209.135464
337.435956
301.364183
22.117160
-6.062568
421.329914
-252.871633
161.115740
-349.215884
-586.122193
196.297734
123.774820
305.297502
-47.758562
76.023955
-341.935882
363.399048
33.064382
94.959575
174.114812
-78.845893
-13.386530
-448.595590
493.440593
-23.655914
226.799002
-217.944255
160.127402
182.358946
-218.298174
-238.953717
-9.924899
-202.835505
432.539031
-384.855539
235.150331
232.960633
145.817229
-13.776363
-237.910426
289.513305
401.671480
-134.908246
73.268076
-624.166517
-118.053482
-561.859378
6.498553
212.730904
42.859868
21.729372
114.365586
-70.583216
-52.484569
39.930168
-266.086791
-254.237350
-130.741808
61.743863
-74.671164
-358.022882
-248.233353
-36.569142
-144.856112
-212.649961
-119.756409
318.381960
-22.922722
4.198837
250.590015
17.403019
114.742919
-5.640535
332.957514
14.570244
-161.264061
-143.584226
-194.523565
-67.737822
-431.333130
-97.665939
334.004375
-386.494213
-466.904916
152.815920
-127.991218
-0.438470
-98.782247
100.773735
69.557947
390.855702
121.542680
-9.321632
259.127059
-140.401189
-542.347856
150.335647
-218.686596
363.775776
70.682841
-17.783459
-11.115312
-168.886411
-4.554488
1.795113
247.612892
617.352931
223.032977
-90.728656
232.460322
-354.252795
197.345196
114.525341
-22.580726
-201.570737
85.501392
205.955276
-265.060561
-175.984155
53.678773
-79.844439
-459.384149
39.037417
-632.260427
-170.325535
-300.927470
-662.869665
-62.890535
-61.758280
42.575470
449.282978
445.467250
-81.662585
120.863135
-489.939273
43.283117
-522.676768
-657.342629
-337.862594
67.359838
52.449308
-215.126000
33.165579
80.750899
330.884915
20.373680
381.508461
668.860123
107.561280
351.478424
409.035273
164.947128
201.985045
168.785084
199.386692
353.602001
126.511225
159.494720
-130.746793
-120.219939
-54.973494
189.793648
90.903118
-406.106879
49.666594
-73.775766
-75.739271
151.684259
38.996415
-174.060975
16.305687
-190.838005
-379.108002
128.823160
-123.204696
-149.833053
-54.331198
-75.002028
-167.355750
590.533707
497.587845
-433.941050
-198.238287
-393.530132
-18.805884
45.054046
-442.847248
-54.389960
535.092910
138.376685
4.589978
-476.600140
191.341028
570.682887
-206.030921
-195.868943
-22.196655
219.181796
-158.518271
-284.415223
9.962451
-123.182917
307.927856
-144.438759
149.718409
-104.252828
-481.646783
-81.511274
317.970457
-1.186863
12.344766
82.227712
-349.725059
-118.758485
-187.493113
629.638703
-371.121704
71.514400
17.548693
174.848119
99.681273
-138.179685
21.433503
-244.593130
-280.857255
135.574723
-72.627708
-11.789476
-58.064859
-538.277784
131.907234
-207.548141
-22.804446
228.804135
-69.413024
-162.473855
62.143927
-527.695506
192.563658
75.853113
-303.393656
-10.170508
-129.350653
117.942188
-141.884860
-349.849380
94.797466
-300.450823
-10.134158
-107.022993
58.364777
-527.590331
-253.110808
83.948588
-16.276982
476.967552
17.293057
1.008717
90.613024
-27.850701
536.605753
-191.642677
-170.377586
-487.287317
639.685109
126.520093
-82.139514
328.347956
28.833138
131.534186
67.274847
19.495283
-102.727696
365.971208
-207.332211
5.637622
-384.086557
-572.218841
185.465162
-285.188736
-70.794582
95.393716
582.254468
24.613193
-222.551035
8.744275
-17.876466
-163.433232
214.789112
235.837540
642.178508
19.805253
645.913150
9.513228
-499.048670
182.028360
88.855310
-358.076855
695.856761
-169.923735
-74.004644
48.420446
38.651746
144.149229
544.464108
188.606949
588.734502
-225.130117
191.218768
-176.043054
240.144424
-118.874934
78.602237
-64.970465
220.362048
-137.327595
510.268656
-510.023248
10.022836
145.683906
-439.434191
-171.729223
-148.913477
-606.827492
-146.277863
19.494620
18.751973
31.252349
-208.718227
35.040635
-2.530543
-247.030084
368.273373
77.006374
250.115794
112.114603
-153.911774
488.894858
-306.781806
55.759864
70.133866
83.050125
-243.963225
72.785184
-12.073454
5.386420
-374.338551
572.853401
-112.696360
-11.621772
246.416041
-448.075166
208.695838
-100.280463
-8.742060
62.117835
490.410616
81.221632
-162.504046
-753.764357
113.103539
-97.438025
53.401904
-60.952226
-121.694702
-100.126527
207.786726
-472.954202
378.022440
88.323880
240.461821
-609.269130
-32.885880
-328.807396
392.820281
-38.375195
151.192015
-476.435175
87.881158
-63.463198
-704.431072
106.687133
148.918490
134.840580
-204.017404
-30.487446
-81.824030
-70.332196
-81.052260
-72.731667
378.789425
331.878177
186.553322
-109.221672
412.007965
13.751788
41.220417
-419.477973
275.144242
-334.344590
177.889774
133.969062
-732.964144
0.189501
71.136062
-111.832466
-73.150223
-308.675769
11.720829
50.007572
-32.221306
27.406764
572.543114
-107.007370
-144.357599
91.171427
-715.224339
577.424160
337.916384
-179.124059
316.526729
-41.878574
-93.758597
304.424333
32.489034
-63.057159
-35.714086
-598.671922
-412.605385
-228.746688
-162.380169
-295.221125
-92.434131
468.585521
-101.767210
-103.494508
-26.145940
12.016049
-26.409362
-133.770035
655.864738
269.999043
110.660843
76.359836
-396.693995
216.933245
-181.647638
184.855012
84.846423
-1.751106
9.124968
-40.076845
-325.927145
-30.050503
134.332225
150.140434
0.414443
-17.819411
6.219485
-19.272621
-315.019613
385.380199
-76.705793
278.097769
-263.044206
-316.722291
-480.050826
-288.636874
238.803586
-327.638817
-30.695054
331.465038
4.340244
158.356427
-161.682676
-29.656736
-522.275298
-307.212626
-225.801240
-154.874348
-437.794261
28.785429
-130.852780
-5.644679
-578.002337
23.761491
-60.543376
193.436016
-361.710485
513.850469
-462.810950
252.397394
33.064258
320.603663
15.308534
-90.085858
-98.513911
-14.054030
40.513481
-411.545776
-203.286789
-47.644874
-114.511937
528.464477
224.564146
-42.318563
-55.308539
278.098464
-295.935142
465.487163
-94.022530
136.133602
-67.985629
37.811983
-371.916376
-115.543050
291.533498
-12.428221
500.743676
45.360104
2.641545
-322.623105
-28.668414
50.931011
0.050499
-38.750918
213.986175
308.229254
-254.086086
-253.773043
-185.132607
230.042433
122.788893
19.534992
14.529066
-52.519997
-200.258503
30.178314
157.527260
727.069290
-65.622249
204.182751
41.509167
144.892516
65.638092
526.090840
-245.069103
562.849218
24.931738
298.023381
-46.566650
1.776505
-464.141349
145.520122
-31.927461
-11.977935
299.032828
214.671876
-521.265556
520.503017
277.278720
-278.636493
90.674951
-136.939381
141.052712
-122.803324
483.559890
138.899226
155.518452
218.592239
-229.845540
170.406285
17.167418
-90.978708
116.493572
-10.734382
-246.024616
-132.872788
246.985651
-274.628612
-421.577445
419.644105
-26.105834
534.922857
-542.888846
-179.716878
-69.056111
-64.980864
-272.029794
56.710735
105.383657
-41.517289
-637.782674
4.887836
-108.556876
-350.984625
12.529283
-482.696479
-19.992284
-228.378133
-11.436359
-709.332949
66.258799
391.270129
-50.045601
469.189091
-225.117448
-418.939738
68.211021
-9.070075
-406.887736
-268.901310
-21.879577
-93.983782
-33.691574
201.950106
113.114252