# vtk DataFile Version 2.0
patchtest_tri3_mix
ASCII
DATASET POLYDATA
POINTS 72 float
0.000000 0.000000 0.000000
1.000000 0.000000 0.000000
1.000000 1.000000 0.000000
0.000000 1.000000 0.000000
0.125000 0.000000 0.000000
0.250000 0.000000 0.000000
0.375000 0.000000 0.000000
0.500000 0.000000 0.000000
0.625000 0.000000 0.000000
0.750000 0.000000 0.000000
0.875000 0.000000 0.000000
1.000000 0.125000 0.000000
1.000000 0.250000 0.000000
1.000000 0.375000 0.000000
1.000000 0.500000 0.000000
1.000000 0.625000 0.000000
1.000000 0.750000 0.000000
1.000000 0.875000 0.000000
0.875000 1.000000 0.000000
0.750000 1.000000 0.000000
0.625000 1.000000 0.000000
0.500000 1.000000 0.000000
0.375000 1.000000 0.000000
0.250000 1.000000 0.000000
0.125000 1.000000 0.000000
0.000000 0.875000 0.000000
0.000000 0.750000 0.000000
0.000000 0.625000 0.000000
0.000000 0.500000 0.000000
0.000000 0.375000 0.000000
0.000000 0.250000 0.000000
0.000000 0.125000 0.000000
0.147930 0.414716 0.000000
0.755535 0.544880 0.000000
0.383686 0.611737 0.000000
0.523506 0.602335 0.000000
0.418828 0.870600 0.000000
0.431022 0.479282 0.000000
0.496140 0.109796 0.000000
0.631452 0.147415 0.000000
0.857765 0.877641 0.000000
0.340628 0.748914 0.000000
0.746320 0.258078 0.000000
0.735186 0.413494 0.000000
0.302702 0.326533 0.000000
0.482759 0.737525 0.000000
0.877164 0.122603 0.000000
0.280139 0.490409 0.000000
0.128780 0.867697 0.000000
0.567235 0.870767 0.000000
0.482702 0.360882 0.000000
0.718753 0.860396 0.000000
0.136474 0.564435 0.000000
0.878819 0.491455 0.000000
0.656294 0.611837 0.000000
0.598236 0.472698 0.000000
0.258117 0.150147 0.000000
0.386110 0.188643 0.000000
0.147405 0.271609 0.000000
0.755437 0.123967 0.000000
0.524160 0.238834 0.000000
0.869908 0.627018 0.000000
0.755882 0.716410 0.000000
0.877049 0.243982 0.000000
0.249905 0.647346 0.000000
0.618368 0.742928 0.000000
0.630671 0.320694 0.000000
0.125749 0.131254 0.000000
0.140157 0.727923 0.000000
0.861965 0.367067 0.000000
0.878452 0.761099 0.000000
0.263854 0.859392 0.000000
POLYGONS 110 440
3 31 0 4
3 31 4 67
3 67 4 5
3 29 30 58
3 58 32 29
3 56 58 67
3 44 32 58
3 58 30 67
3 30 31 67
3 28 29 32
3 56 67 5
3 57 56 6
3 6 56 5
3 38 60 57
3 7 38 6
3 57 6 38
3 47 44 37
3 47 32 44
3 50 37 44
3 60 50 57
3 35 34 37
3 50 44 57
3 44 56 57
3 47 37 34
3 55 37 50
3 44 58 56
3 52 32 47
3 27 28 52
3 52 68 27
3 68 52 64
3 32 52 28
3 27 68 26
3 25 26 48
3 25 24 3
3 24 25 48
3 23 24 48
3 26 68 48
3 48 68 71
3 41 71 68
3 41 64 34
3 34 45 41
3 35 45 34
3 52 47 64
3 41 45 36
3 23 71 22
3 23 48 71
3 22 36 21
3 36 22 71
3 49 21 36
3 71 41 36
3 49 36 45
3 68 64 41
3 34 64 47
3 38 7 8
3 39 60 38
3 39 8 59
3 9 59 8
3 59 9 10
3 39 59 42
3 55 35 37
3 50 66 55
3 66 42 43
3 66 60 39
3 43 42 69
3 66 43 55
3 39 42 66
3 33 55 43
3 59 63 42
3 39 38 8
3 63 59 46
3 46 10 1
3 1 11 46
3 46 11 63
3 69 63 13
3 69 42 63
3 69 13 53
3 13 63 12
3 53 13 14
3 63 11 12
3 69 53 43
3 46 59 10
3 33 43 53
3 65 35 54
3 35 55 54
3 33 62 54
3 62 33 61
3 55 33 54
3 65 54 62
3 49 65 51
3 49 45 65
3 20 51 19
3 51 20 49
3 40 19 51
3 65 62 51
3 49 20 21
3 51 62 70
3 65 45 35
3 53 15 61
3 61 33 53
3 15 16 61
3 61 16 70
3 40 18 19
3 18 40 17
3 17 2 18
3 17 70 16
3 17 40 70
3 51 70 40
3 70 62 61
3 14 15 53
3 50 60 66
POINT_DATA 72
SCALARS P float 1
LOOKUP_TABLE default
3061.971769
-27.613566
-24.988756
-3416.667215
2641.206737
2268.549437
1843.003407
1490.044533
1100.544455
717.291509
314.192543
74.749361
26.005732
24.510292
-8.466413
-8.052517
-35.211972
-18.764047
-449.681553
-838.860738
-1194.410816
-1607.202218
-2014.536304
-2372.385411
-2705.950921
-1465.751005
-1546.241130
-495.846956
130.133292
752.955948
1645.135286
2154.085153
415.873381
-74.511550
-390.387017
-269.632121
-1172.346246
68.903867
1175.233042
760.950746
-203.216118
-1059.035605
363.149349
149.020265
732.514466
-731.800800
275.888323
48.779053
-1981.250560
-869.301442
425.527479
-554.771663
-421.406487
-1.136397
-197.006576
59.849606
1551.107706
1117.071580
1114.850134
597.064557
741.536371
-62.759539
-315.948440
143.909328
-563.192352
-582.316308
400.522353
1809.490131
-1219.529651
120.518555
-222.214951
-1394.042038
