# vtk DataFile Version 2.0
patchtest_tri3_mix
ASCII
DATASET POLYDATA
POINTS 4165 float
0.000000 -6.000000 0.000000
48.000000 -6.000000 0.000000
48.000000 6.000000 0.000000
0.000000 6.000000 0.000000
0.375000 -6.000000 0.000000
0.750000 -6.000000 0.000000
1.125000 -6.000000 0.000000
1.500000 -6.000000 0.000000
1.875000 -6.000000 0.000000
2.250000 -6.000000 0.000000
2.625000 -6.000000 0.000000
3.000000 -6.000000 0.000000
3.375000 -6.000000 0.000000
3.750000 -6.000000 0.000000
4.125000 -6.000000 0.000000
4.500000 -6.000000 0.000000
4.875000 -6.000000 0.000000
5.250000 -6.000000 0.000000
5.625000 -6.000000 0.000000
6.000000 -6.000000 0.000000
6.375000 -6.000000 0.000000
6.750000 -6.000000 0.000000
7.125000 -6.000000 0.000000
7.500000 -6.000000 0.000000
7.875000 -6.000000 0.000000
8.250000 -6.000000 0.000000
8.625000 -6.000000 0.000000
9.000000 -6.000000 0.000000
9.375000 -6.000000 0.000000
9.750000 -6.000000 0.000000
10.125000 -6.000000 0.000000
10.500000 -6.000000 0.000000
10.875000 -6.000000 0.000000
11.250000 -6.000000 0.000000
11.625000 -6.000000 0.000000
12.000000 -6.000000 0.000000
12.375000 -6.000000 0.000000
12.750000 -6.000000 0.000000
13.125000 -6.000000 0.000000
13.500000 -6.000000 0.000000
13.875000 -6.000000 0.000000
14.250000 -6.000000 0.000000
14.625000 -6.000000 0.000000
15.000000 -6.000000 0.000000
15.375000 -6.000000 0.000000
15.750000 -6.000000 0.000000
16.125000 -6.000000 0.000000
16.500000 -6.000000 0.000000
16.875000 -6.000000 0.000000
17.250000 -6.000000 0.000000
17.625000 -6.000000 0.000000
18.000000 -6.000000 0.000000
18.375000 -6.000000 0.000000
18.750000 -6.000000 0.000000
19.125000 -6.000000 0.000000
19.500000 -6.000000 0.000000
19.875000 -6.000000 0.000000
20.250000 -6.000000 0.000000
20.625000 -6.000000 0.000000
21.000000 -6.000000 0.000000
21.375000 -6.000000 0.000000
21.750000 -6.000000 0.000000
22.125000 -6.000000 0.000000
22.500000 -6.000000 0.000000
22.875000 -6.000000 0.000000
23.250000 -6.000000 0.000000
23.625000 -6.000000 0.000000
24.000000 -6.000000 0.000000
24.375000 -6.000000 0.000000
24.750000 -6.000000 0.000000
25.125000 -6.000000 0.000000
25.500000 -6.000000 0.000000
25.875000 -6.000000 0.000000
26.250000 -6.000000 0.000000
26.625000 -6.000000 0.000000
27.000000 -6.000000 0.000000
27.375000 -6.000000 0.000000
27.750000 -6.000000 0.000000
28.125000 -6.000000 0.000000
28.500000 -6.000000 0.000000
28.875000 -6.000000 0.000000
29.250000 -6.000000 0.000000
29.625000 -6.000000 0.000000
30.000000 -6.000000 0.000000
30.375000 -6.000000 0.000000
30.750000 -6.000000 0.000000
31.125000 -6.000000 0.000000
31.500000 -6.000000 0.000000
31.875000 -6.000000 0.000000
32.250000 -6.000000 0.000000
32.625000 -6.000000 0.000000
33.000000 -6.000000 0.000000
33.375000 -6.000000 0.000000
33.750000 -6.000000 0.000000
34.125000 -6.000000 0.000000
34.500000 -6.000000 0.000000
34.875000 -6.000000 0.000000
35.250000 -6.000000 0.000000
35.625000 -6.000000 0.000000
36.000000 -6.000000 0.000000
36.375000 -6.000000 0.000000
36.750000 -6.000000 0.000000
37.125000 -6.000000 0.000000
37.500000 -6.000000 0.000000
37.875000 -6.000000 0.000000
38.250000 -6.000000 0.000000
38.625000 -6.000000 0.000000
39.000000 -6.000000 0.000000
39.375000 -6.000000 0.000000
39.750000 -6.000000 0.000000
40.125000 -6.000000 0.000000
40.500000 -6.000000 0.000000
40.875000 -6.000000 0.000000
41.250000 -6.000000 0.000000
41.625000 -6.000000 0.000000
42.000000 -6.000000 0.000000
42.375000 -6.000000 0.000000
42.750000 -6.000000 0.000000
43.125000 -6.000000 0.000000
43.500000 -6.000000 0.000000
43.875000 -6.000000 0.000000
44.250000 -6.000000 0.000000
44.625000 -6.000000 0.000000
45.000000 -6.000000 0.000000
45.375000 -6.000000 0.000000
45.750000 -6.000000 0.000000
46.125000 -6.000000 0.000000
46.500000 -6.000000 0.000000
46.875000 -6.000000 0.000000
47.250000 -6.000000 0.000000
47.625000 -6.000000 0.000000
48.000000 -5.625000 0.000000
48.000000 -5.250000 0.000000
48.000000 -4.875000 0.000000
48.000000 -4.500000 0.000000
48.000000 -4.125000 0.000000
48.000000 -3.750000 0.000000
48.000000 -3.375000 0.000000
48.000000 -3.000000 0.000000
48.000000 -2.625000 0.000000
48.000000 -2.250000 0.000000
48.000000 -1.875000 0.000000
48.000000 -1.500000 0.000000
48.000000 -1.125000 0.000000
48.000000 -0.750000 0.000000
48.000000 -0.375000 0.000000
48.000000 -0.000000 0.000000
48.000000 0.375000 0.000000
48.000000 0.750000 0.000000
48.000000 1.125000 0.000000
48.000000 1.500000 0.000000
48.000000 1.875000 0.000000
48.000000 2.250000 0.000000
48.000000 2.625000 0.000000
48.000000 3.000000 0.000000
48.000000 3.375000 0.000000
48.000000 3.750000 0.000000
48.000000 4.125000 0.000000
48.000000 4.500000 0.000000
48.000000 4.875000 0.000000
48.000000 5.250000 0.000000
48.000000 5.625000 0.000000
47.625000 6.000000 0.000000
47.250000 6.000000 0.000000
46.875000 6.000000 0.000000
46.500000 6.000000 0.000000
46.125000 6.000000 0.000000
45.750000 6.000000 0.000000
45.375000 6.000000 0.000000
45.000000 6.000000 0.000000
44.625000 6.000000 0.000000
44.250000 6.000000 0.000000
43.875000 6.000000 0.000000
43.500000 6.000000 0.000000
43.125000 6.000000 0.000000
42.750000 6.000000 0.000000
42.375000 6.000000 0.000000
42.000000 6.000000 0.000000
41.625000 6.000000 0.000000
41.250000 6.000000 0.000000
40.875000 6.000000 0.000000
40.500000 6.000000 0.000000
40.125000 6.000000 0.000000
39.750000 6.000000 0.000000
39.375000 6.000000 0.000000
39.000000 6.000000 0.000000
38.625000 6.000000 0.000000
38.250000 6.000000 0.000000
37.875000 6.000000 0.000000
37.500000 6.000000 0.000000
37.125000 6.000000 0.000000
36.750000 6.000000 0.000000
36.375000 6.000000 0.000000
36.000000 6.000000 0.000000
35.625000 6.000000 0.000000
35.250000 6.000000 0.000000
34.875000 6.000000 0.000000
34.500000 6.000000 0.000000
34.125000 6.000000 0.000000
33.750000 6.000000 0.000000
33.375000 6.000000 0.000000
33.000000 6.000000 0.000000
32.625000 6.000000 0.000000
32.250000 6.000000 0.000000
31.875000 6.000000 0.000000
31.500000 6.000000 0.000000
31.125000 6.000000 0.000000
30.750000 6.000000 0.000000
30.375000 6.000000 0.000000
30.000000 6.000000 0.000000
29.625000 6.000000 0.000000
29.250000 6.000000 0.000000
28.875000 6.000000 0.000000
28.500000 6.000000 0.000000
28.125000 6.000000 0.000000
27.750000 6.000000 0.000000
27.375000 6.000000 0.000000
27.000000 6.000000 0.000000
26.625000 6.000000 0.000000
26.250000 6.000000 0.000000
25.875000 6.000000 0.000000
25.500000 6.000000 0.000000
25.125000 6.000000 0.000000
24.750000 6.000000 0.000000
24.375000 6.000000 0.000000
24.000000 6.000000 0.000000
23.625000 6.000000 0.000000
23.250000 6.000000 0.000000
22.875000 6.000000 0.000000
22.500000 6.000000 0.000000
22.125000 6.000000 0.000000
21.750000 6.000000 0.000000
21.375000 6.000000 0.000000
21.000000 6.000000 0.000000
20.625000 6.000000 0.000000
20.250000 6.000000 0.000000
19.875000 6.000000 0.000000
19.500000 6.000000 0.000000
19.125000 6.000000 0.000000
18.750000 6.000000 0.000000
18.375000 6.000000 0.000000
18.000000 6.000000 0.000000
17.625000 6.000000 0.000000
17.250000 6.000000 0.000000
16.875000 6.000000 0.000000
16.500000 6.000000 0.000000
16.125000 6.000000 0.000000
15.750000 6.000000 0.000000
15.375000 6.000000 0.000000
15.000000 6.000000 0.000000
14.625000 6.000000 0.000000
14.250000 6.000000 0.000000
13.875000 6.000000 0.000000
13.500000 6.000000 0.000000
13.125000 6.000000 0.000000
12.750000 6.000000 0.000000
12.375000 6.000000 0.000000
12.000000 6.000000 0.000000
11.625000 6.000000 0.000000
11.250000 6.000000 0.000000
10.875000 6.000000 0.000000
10.500000 6.000000 0.000000
10.125000 6.000000 0.000000
9.750000 6.000000 0.000000
9.375000 6.000000 0.000000
9.000000 6.000000 0.000000
8.625000 6.000000 0.000000
8.250000 6.000000 0.000000
7.875000 6.000000 0.000000
7.500000 6.000000 0.000000
7.125000 6.000000 0.000000
6.750000 6.000000 0.000000
6.375000 6.000000 0.000000
6.000000 6.000000 0.000000
5.625000 6.000000 0.000000
5.250000 6.000000 0.000000
4.875000 6.000000 0.000000
4.500000 6.000000 0.000000
4.125000 6.000000 0.000000
3.750000 6.000000 0.000000
3.375000 6.000000 0.000000
3.000000 6.000000 0.000000
2.625000 6.000000 0.000000
2.250000 6.000000 0.000000
1.875000 6.000000 0.000000
1.500000 6.000000 0.000000
1.125000 6.000000 0.000000
0.750000 6.000000 0.000000
0.375000 6.000000 0.000000
0.000000 5.625000 0.000000
0.000000 5.250000 0.000000
0.000000 4.875000 0.000000
0.000000 4.500000 0.000000
0.000000 4.125000 0.000000
0.000000 3.750000 0.000000
0.000000 3.375000 0.000000
0.000000 3.000000 0.000000
0.000000 2.625000 0.000000
0.000000 2.250000 0.000000
0.000000 1.875000 0.000000
0.000000 1.500000 0.000000
0.000000 1.125000 0.000000
0.000000 0.750000 0.000000
0.000000 0.375000 0.000000
0.000000 0.000000 0.000000
0.000000 -0.375000 0.000000
0.000000 -0.750000 0.000000
0.000000 -1.125000 0.000000
0.000000 -1.500000 0.000000
0.000000 -1.875000 0.000000
0.000000 -2.250000 0.000000
0.000000 -2.625000 0.000000
0.000000 -3.000000 0.000000
0.000000 -3.375000 0.000000
0.000000 -3.750000 0.000000
0.000000 -4.125000 0.000000
0.000000 -4.500000 0.000000
0.000000 -4.875000 0.000000
0.000000 -5.250000 0.000000
0.000000 -5.625000 0.000000
32.947857 2.109707 0.000000
34.836417 1.491987 0.000000
26.255782 4.317466 0.000000
2.737708 -3.748812 0.000000
43.831994 0.716159 0.000000
21.730382 2.035152 0.000000
5.169049 0.697699 0.000000
37.022033 5.290044 0.000000
42.401770 -2.326608 0.000000
43.924675 -2.303297 0.000000
18.523983 0.914737 0.000000
15.064715 -2.361881 0.000000
11.330848 -4.552601 0.000000
46.508775 -0.784059 0.000000
38.249423 -3.219219 0.000000
29.696865 3.584325 0.000000
17.000022 -5.314062 0.000000
36.603160 5.290339 0.000000
19.823433 -3.507182 0.000000
31.356642 3.574934 0.000000
1.088804 -2.316345 0.000000
15.659572 0.797905 0.000000
23.291638 -2.557945 0.000000
37.307325 1.388063 0.000000
38.076194 1.451616 0.000000
30.529135 -0.013719 0.000000
36.158710 -4.681093 0.000000
38.238771 0.068124 0.000000
3.739922 1.026139 0.000000
24.101615 -5.313845 0.000000
0.361342 -2.720670 0.000000
[...]
POINT_DATA 4165
SCALARS P float 1
LOOKUP_TABLE default
1029.024335
0.352014
-2.458371
-984.805496
1005.082486
1003.530604
990.211841
986.243546
975.602654
967.391261
958.276515
949.774552
941.906040
935.257615
929.666071
922.703555
914.715270
906.689869
898.426144
890.222820
882.211700
874.491844
867.511633
859.298123
850.825183
842.259276
833.032780
825.181934
817.935886
808.403660
802.488328
794.220407
787.087942
779.567006
771.483482
763.398828
756.662894
751.193000
740.270850
732.882246
723.962015
715.183831
708.572718
699.851018
692.315169
683.441024
675.176141
667.137837
659.214102
651.821127
643.844331
635.890023
627.650334
619.238775
610.932140
602.585144
594.499185
586.680870
578.939188
571.242545
563.759688
555.905509
547.772520
539.669072
531.764162
523.768958
515.850548
508.075468
500.337783
492.387998
484.663666
476.406373
468.138788
460.022108
451.916539
443.889453
435.924125
427.951370
420.117668
412.267858
404.131641
396.024846
388.073916
380.125987
371.810354
363.914388
356.666497
348.432006
340.376353
331.733758
323.702371
315.381405
308.258949
300.116945
292.238513
284.222721
276.303631
268.427098
260.373798
252.236891
244.188932
236.127371
228.086070
220.158917
212.234178
204.221477
196.099091
188.033095
180.070210
172.073688
164.093003
156.157114
148.240512
140.251455
132.229860
124.116741
116.075703
108.148576
100.324603
92.486644
84.650495
76.765169
68.883863
60.717548
52.657030
44.716054
37.629273
29.769246
20.653122
14.814745
5.007255
2.594109
2.041865
3.794375
2.269483
2.690933
1.946327
2.503120
1.738458
1.383678
1.703556
1.276129
1.122453
0.765716
0.517529
0.272735
0.006677
-0.281052
-0.511564
-0.940431
-1.037824
-1.467922
-1.513380
-1.975302
-1.976258
-2.457561
-2.907480
-2.344661
-3.524690
-2.084871
-2.463743
-2.065771
-8.736576
-18.467489
-26.031343
-34.468574
-42.272214
-50.577058
-58.534375
-66.628129
-74.762868
-82.978628
-91.372024
-99.959275
-108.104206
-115.866461
-123.563607
-131.350246
-139.081012
-146.958294
-154.966139
-163.098424
-171.439457
-180.061920
-188.334325
-196.193734
-203.949858
-211.791674
-219.455070
-227.214250
-235.090571
-243.176453
-251.580563
-260.343236
-268.830061
-276.936817
-284.630322
-292.366314
-300.368606
-308.666002
-317.086751
-325.965878
-333.650057
-342.059900
-349.880786
-357.521774
-365.383117
-373.064570
-381.244836
-389.420135
-397.691715
-406.698180
-415.976046
-423.362188
-430.481677
-437.561303
-444.052886
-451.743348
-459.726650
-471.308351
-481.274090
-487.936232
-493.643602
-500.150584
-507.843937
-516.469165
-524.767931
-532.784773
-540.543366
-548.171106
-555.674372
-563.184721
-571.110754
-579.404123
-588.738278
-594.311810
-602.979052
-612.491294
-621.032042
-629.050514
-630.817657
-637.606030
-652.571609
-657.709070
-665.002446
-677.032753
-692.689422
-689.375560
-717.104162
-715.691834
-717.342762
-724.671779
-733.703337
-741.695801
-748.832304
-756.943419
-765.478593
-777.233911
-786.762069
-792.589383
-797.793362
-803.164591
-809.331262
-816.872945
-825.639827
-835.353271
-849.182731
-859.797200
-865.898065
-872.024894
-877.685506
-883.384163
-889.918950
-897.195860
-906.729362
-917.560192
-926.174767
-933.666530
-940.458593
-947.109302
-953.947454
-961.228098
-973.116880
-979.984487
-988.660426
-987.349788
-1001.990973
-991.232490
-1022.797714
-908.422498
-849.621990
-781.126580
-722.949957
-657.912724
-594.799785
-534.026378
-472.949249
-408.784342
-347.075220
-285.388634
-221.769793
-158.654360
-97.795606
-36.142703
26.620475
90.022605
149.352884
208.257877
270.989155
333.693441
395.929169
459.030184
521.612099
584.029221
645.144514
706.230443
774.175882
828.083903
887.053887
943.007423
-110.078387
-68.162995
-324.686047
587.597434
-10.279614
-185.344411
-104.925881
-205.698561
45.283938
32.587487
-92.912400
269.953423
579.813739
4.127997
108.829046
-227.363150
577.166514
-213.595359
342.446411
-206.050012
373.518619
-91.464388
219.357749
-51.384757
-49.902811
0.479661
192.449475
-2.174700
-156.770441
444.555974
434.797874
6.100052
481.149750
35.076682
-477.234116
-770.172015
-371.874051
139.305731
-319.530518
220.674904
643.150511
-65.836876
-22.790690
242.351662
-257.871305
265.381192
-35.368229
43.162110
549.302928
827.341527
-98.020944
-502.110116
208.991668
-288.734984
-130.268249
99.645683
510.146391
713.715919
-387.271390
234.655941
-380.345966
-469.358302
547.275896
13.401150
366.846808
361.417573
809.167620
196.578833
-153.715235
-729.537772
-138.164495
-198.703447
324.846709
-147.498709
-130.953234
114.174848
-9.436759
-80.338285
-162.677954
-296.915933
53.286278
378.005238
-647.864880
341.339536
-452.722036
-327.793454
-566.592101
50.473303
-27.106087
767.399019
-39.667514
-96.369484
-162.569900
-4.176580
211.479625
-683.169345
-505.570411
121.192226
-345.508448
4.644738
-538.593995
-263.041174
-60.047846
-198.926785
4.049626
217.152092
-119.800710
252.462702
485.131314
213.974692
-44.014797
-304.506098
610.877428
480.143131
112.171082
53.387528
-189.690496
271.793433
81.530996
203.666255
-2.214247
603.513375
485.552920
0.403862
215.308946
-97.926325
-290.186274
82.201024
-163.741935
720.748692
-367.543339
-0.798655
-156.605624
296.552300
14.901489
745.833931
-245.426923
-55.231423
216.164441
-48.855834
266.901999
-351.579295
-190.523972
318.794794
-336.543293
-6.638647
-213.609453
45.667018
-484.455039
-133.936732
-135.469800
-124.985209
-610.376444
-396.131161
-156.488461
-406.002054
-0.580609
146.801458
546.255514
-4.023703
-211.625692
-142.122528
192.340265
-18.561718
-120.900016
-842.408443
3.082116
283.162999
95.094078
-49.400529
-56.958019
618.873353
-368.232860
54.567757
20.717448
-297.469523
-3.148688
176.040574
121.744421
346.913823
179.878906
192.434227
68.191141
655.953594
24.612803
575.925925
10.019962
118.004298
-107.645113
165.752346
33.793089
215.189136
582.732542
107.353987
-344.866306
97.127925
58.267700
394.056029
288.279979
-520.469749
-261.547443
-13.270686
170.059589
-316.209116
130.522557
-47.785149
-236.171914
377.759250
-248.600208
-285.901620
293.290835
-497.293837
-169.320886
-12.384017
-31.174543
32.380021
-148.712052
131.012749
258.576981
123.756782
-39.350520
430.924056
365.421788
47.533012
685.093272
-217.239121
-106.138676
13.782392
911.243892
549.055699
-531.052630
315.569744
-404.519064
344.010005
399.153581
311.613142
19.904835
190.312194
223.812695
8.467912
51.520096
-455.393303
-40.373721
698.057497
185.737636
89.442495
5.863506
-601.161172
669.312354
81.551109
20.746013
60.121069
14.679501
-486.430016
147.273408
-165.939483
210.983235
185.130684
80.326455
70.218329
189.280904
-222.455294
56.427819
-398.121187
132.333355
18.828711
65.818314
-384.716099
-373.192662
92.247231
-358.624595
-97.921730
128.005446
65.507994
84.404118
-384.120157
55.097520
133.613107
-552.163267
33.450106
-40.533271
574.623594
-766.411253
-156.082197
-18.711388
249.832077
-360.956704
268.270806
37.325449
-111.496363
22.399745
97.760922
-662.044807
245.064484
-79.856592
-415.475799
-352.506147
-413.873208
-117.966030
-623.251913
99.471094
-6.453718
-10.769801
50.758821
30.550010
-626.973849
-107.305496
388.306809
426.133730
-206.143291
34.309100
884.650272
309.654311
402.895821
238.145408
489.197439
-21.440330
-74.609042
-142.714653
27.517047
265.748004
-42.053647
175.423767
276.899533
-46.429945
505.471444
206.148107
-264.533289
-306.672242
-281.238571
-62.149017
518.238442
-113.078548
376.147156
-462.245611
-44.191224
-58.191206
511.284170
222.606003
324.483317
243.312545
-380.585145
164.454874
522.198732
-240.101721
608.627640
-43.208345
160.124243
872.056936
-379.835931
-401.410845
-166.834774
8.675226
-172.365322
28.392955
29.534272
-73.367376
1.908560
462.416385
-472.955292
18.476288
0.562008
579.733724
-203.312562
-158.406217
-141.928297
-574.130714
258.509555
361.222008
351.888888
-690.439296
-126.439865
425.909710
-122.584684
-348.511294
174.077717
-20.231114
57.454737
320.401737
385.261897
789.827309
299.956069
-81.227917
17.477755
373.749644
587.601356
-49.427826
336.552804
-43.556398
26.128077
-550.416458
68.946891
570.490611
-295.829725
154.777266
-10.519759
96.283730
-25.328022
92.732214
196.357742
62.196398
622.340335
17.720855
75.111661
-272.077285
48.522144
-220.608695
20.782963
42.222761
518.093970
-100.144985
118.121352
-302.651541
-9.139683
38.174491
13.711932
360.106602
-147.407657
55.344353
346.266359
416.014363
-238.637835
-440.795786
175.658229
276.351037
900.166813
-864.250899
24.494655
118.562144
141.236591
79.567889
-341.708124
-249.992311
-247.160777
-553.636315
62.826825
-424.969045
-49.675157
193.054671
129.956743
1.924276
-501.171955
446.100621
-87.169749
-200.998475
290.452710
25.117519
-393.550317
-82.066158
-104.518929
-4.294085
282.785517
219.109459
187.807796
614.137478
-680.645816
503.072668
321.310460
247.555497
-249.391442
-272.706812
601.057667
-178.469730
450.397361
-10.385837
-67.044266
-142.396964
-247.960763
-12.612595
744.916991
-209.897211
164.109725
-392.126288
80.875821
10.307757
443.016258
217.145675
-60.919186
-15.276861
155.963537
36.691619
-151.878239
-90.521595
-37.636684
94.768989
243.122402
-228.035247
133.879105
-321.009980
-156.264957
25.377740
127.532292
-43.739942
67.671349
-52.895915
495.168382
-594.927493
-44.973648
-183.163243
288.367410
-546.296707
355.947276
-25.663221
-131.256155
-473.984866
740.141418
-426.506262
-285.557201
-64.428208
-579.826464
-271.831583
391.763595
-623.387212
638.515504
63.848070
236.180344
-89.314303
-90.140860
-229.568533
-676.556216
548.587680
-13.846328
494.311579
-109.645524
3.864567
-222.197929
-41.607365
163.923351
-234.728992
80.225938
161.672779
-272.332953
98.038681
459.260688
-57.592381
-248.646254
321.337328
385.361460
350.947588
441.134152
-461.861618
63.358459
-2.909004
-429.691264
34.576986
-110.295047
347.787281
-474.816928
-821.015611
-195.171339
98.704380
-67.331578
-90.301375
119.142115
130.185797
-224.390681
-17.231333
-5.613675
5.487301
-111.620311
105.519670
-180.282700
139.549506
-103.632338
-450.628899
-444.366899
-24.914617
725.082375
-107.559470
-11.773978
-179.638505
283.045951
380.996838
-404.075663
393.071221
147.572399
-30.090231
-15.573763
-135.640568
82.985111
563.720836
-749.925086
91.065450
198.089987
-307.195514
-0.018515
-22.717390
13.698092
-645.358652
-221.432863
-455.754528
-431.443694
-56.859508
-217.093739
-87.931902
160.070638
-195.574562
-409.620247
-709.802509
-316.053013
207.404731
4.267852
331.662165
-40.666178
524.066989
-51.911516
166.626632
46.707085
-57.483087
-589.990942
12.949571
-226.830763
-15.323161
-43.344048
-75.301546
578.942497
310.908081
20.633646
-192.444762
26.339287
440.850075
-829.344366
396.504918
188.781882
-177.741773
308.633075
573.493165
145.541123
-318.364939
-253.423137
419.087320
-140.142374
716.269868
-7.370477
-96.709010
-363.144543
-218.504038
273.716978
88.775234
-602.232451
-139.273285
153.950730
111.084001
268.502971
480.500873
60.971948
-34.239741
497.628099
-710.746109
-629.110755
-10.074926
-457.637914
568.589820
40.847159
99.594070
-451.569923
-538.616152
219.217541
-140.626981
-386.676818
-10.070483
786.483143
-125.703201
-184.753544
489.777682
16.991659
-75.394864
350.973785
65.667714
-154.448525
-83.943048
228.281418
747.201819
-207.088901
496.827188
-317.618315
-297.760150
-11.114426
-612.262112
-159.461796
106.886929
-439.585237
123.159132
-89.015861
460.885863
272.909499
-135.256888
-151.696066
185.930262
-670.512996
36.081880
0.672594
-100.272938
-51.175128
736.126778
-596.496368
-54.967212
73.444765
-2.409198
346.759519
-404.652317
-27.122991
92.563453
440.218126
-84.454844
-309.883309
642.071139
-314.849905
96.296122
165.656734
177.932373
346.285643
83.636167
3.960937
142.027424
-53.341838
-76.457993
314.843577
-84.782355
-632.847850
-214.317551
245.659302
-1.110865
-254.077076
-728.756246
-91.712599
2.332723
483.683166
-28.470155
5.007352
97.924761
-94.592959
-86.365412
13.304559
-258.172511
-152.642356
-643.631150
-122.718440
-250.996076
-383.938475
-78.677789
-81.491124
300.356031
424.446938
49.304030
-64.602691
106.361123
-630.291750
18.584455
45.678494
11.636079
-139.960072
-285.778223
-868.621857
9.146367
104.407494
29.971504
145.716840
298.624032
-728.593890
167.959232
360.321804
454.714969
-363.392172
-149.305219
13.592240
268.335528
-89.478011
-459.632231
-607.259738
-444.542029
372.311266
674.760767
182.761788
131.744112
-722.053322
-261.546364
301.855696
-406.266068
-170.917048
218.857751
109.252357
-607.864745
644.582546
620.994808
181.018564
-199.100732
473.297445
95.128537
-177.699686
101.395556
-22.066147
-414.636601
11.283193
308.462437
90.138844
-109.577376
290.495485
466.735677
347.563605
-267.748360
-220.177507
10.985207
16.312780
-50.026393
166.703961
-22.860840
428.859415
-12.225111
-77.041920
74.134035
-366.926741
-219.063650
577.107119
449.427520
85.499020
-507.632982
-346.829464
-70.157000
-76.508445
-494.261264
-352.691737
-21.147849
-337.746992
37.362756
386.279261
-61.831065
-467.406608
-727.512258
-445.331365
-64.258615
169.717770
-52.857656
-438.317344
-89.353519
24.057546
103.081296
286.759346
-238.678389
215.083904
891.815730
509.246818
202.005444
474.290925
251.454604
-30.463676
877.727796
-728.981416
660.618217
-319.238402
550.969728
-699.342079
356.508413
2.804121
410.914388
-11.470935
-395.409594
-4.294269
9.929716
46.640546
66.763478
-550.918349
-429.481176
-175.441344
-346.369353
-464.931267
691.611995
440.216557
94.537891
-82.574334
322.198762
40.118430
9.178219
140.545069
-72.035331
-43.386458
-10.741488
125.323819
-784.547241
-140.067729
-404.436190
301.874272
161.900871
-112.413087
-241.341194
49.522611
-3.116634
409.232193
123.730393
-196.028476
-233.934495
-304.340278
497.438264
-41.693686
-106.173211
-52.065118
-367.351153
23.513136
231.016445
-507.384686
180.251884
-184.083916
-0.272106
-83.355305
57.376463
475.138334
27.316157
357.341230
815.765716
42.183175
-170.038432
120.001508
-249.664900
427.209791
-381.367730
689.236529
261.637215
114.339651
-51.745009
606.047587
-275.084197
412.065887
116.600794
-433.785935
727.628725
42.235632
-602.831883
118.074352
215.094868
608.961369
694.902326
-351.540788
113.704311
108.725627
142.805385
-167.300480
22.798554
-62.019401
-38.998829
202.648365
-0.532468
658.975150
218.679673
4.321064
694.854474
113.269941
53.855029
-330.767688
-34.916228
-225.702085
273.936390
8.283605
-99.922586
-210.012207
-375.657917
258.406419
-86.800212
-7.955187
16.739302
582.661525
-113.000059
-75.869539
458.295752
-313.538298
421.659980
24.264049
-168.871444
78.465322
134.815752
31.396229
225.809297
-244.885548
346.608514
167.669057
404.762312
203.863025
325.596411
-119.553323
98.216740
103.759126
-238.414693
424.121523
63.782087
-42.593525
-67.638955
-23.547544
266.921800
-54.866673
-87.989244
-283.133598
-108.630263
0.979296
-258.190046
465.475342
-10.720019
-123.585725
-271.664545
103.879428
130.913978
123.708802
-12.014298
-760.433191
-496.699007
-555.450103
-174.409413
-40.597156
-61.035559
-37.351760
703.226950
-163.961269
8.911617
6.697189
-446.950604
-138.750652
30.450437
-702.920435
-491.202556
191.813664
-71.025750
16.263874
251.507935
12.026102
165.534380
-58.038188
697.341060
568.862343
145.667767
-490.278540
-615.511505
71.593544
312.593999
-643.389849
271.765308
39.396065
-77.385622
-15.129443
335.218203
-281.853693
-41.799709
83.344339
-493.561186
-463.598102
-46.300966
67.107827
37.640334
186.819953
-652.475952
39.541245
601.489900
245.296452
15.272221
421.544212
22.165313
-243.894183
248.451145
-24.168170
609.738787
100.176802
-20.513682
77.036029
2.121343
59.360248
617.446681
-274.471928
103.878489
28.731226
60.960151
341.420840
572.021073
573.383999
35.474337
126.739080
-164.910228
491.928367
-483.892152
223.163372
-35.097550
-565.363815
755.052991
513.793780
-20.542427
78.589668
-369.969795
639.699882
-221.932608
-163.431964
-221.788168
3.316537
424.173482
-156.327516
-18.796999
-32.599276
-839.296308
20.799201
119.222096
-205.937593
-4.849566
182.337311
-431.909224
-490.077632
29.960473
61.083602
-118.791115
-665.971264
-288.730248
-329.849429
467.474991
75.097773
-280.903417
-561.208547
305.814530
-88.414811
-26.175716
-575.997795
802.158723
557.889967
-381.425216
18.423919
99.101891
26.243543
-10.783655
33.745053
567.819418
-41.877984
229.976800
20.255930
134.520300
-113.102984
-272.613749
-21.385995
-186.904667
-196.181575
354.298270
-387.016420
-144.645839
-298.892626
334.318883
175.198773
130.531929
15.307751
104.817086
-169.070289
-48.709583
248.693235
-859.241044
-527.060420
71.289371
349.231503
-296.721946
-114.757193
-290.561085
-719.270560
40.162504
-28.704675
-282.148106
-131.750330
-291.649048
290.750878
-272.154190
36.140086
-169.043741
-538.138157
-212.545550
-156.881918
122.810277
-219.663015
-64.016728
-28.934280
-261.415499
91.251412
-247.044154
718.122478
514.898521
-32.541073
-776.257432
-174.879126
177.526276
247.694031
134.562021
4.431810
-408.439477
-44.176030
631.910079
-180.239583
-494.192530
-7.702665
17.598967
770.386192
181.785062
-8.389269
-10.034106
758.617884
149.006991
-205.347177
5.043690
145.610701
-105.148009
414.707914
-430.135947
-654.198347
63.224314
-341.276552
-557.559200
642.821378
357.045613
311.187250
254.473411
304.198137
-176.790020
-23.053226
-0.787507
500.323064
-122.801853
537.908898
-26.097046
8.359691
95.631491
-137.654202
132.802574
177.739597
73.198740
31.001609
-182.979137
54.877890
441.148727
-230.449393
510.242967
-134.800444
-32.634272
157.203377
-292.472053
-134.934121
-653.830697
99.094650
-90.262657
820.213362
174.702060
-331.277768
79.818440
-25.164483
-209.075145
227.918877
65.275886
-128.985244
-84.747747
162.133300
238.641825
585.021082
-295.948532
55.288482
-220.087963
126.257450
-197.572107
95.336655
-783.644765
172.715260
677.553744
23.128345
-422.657015
135.067489
794.196748
45.008436
-604.030294
-243.964506
-84.073195
138.202784
-340.131062
8.574578
286.052510
-599.013637
-449.801049
-74.773870
-388.131550
-304.994198
-445.396568
46.810479
224.323876
-545.299208
707.755361
113.709105
-175.702949
442.802616
-745.963983
285.386309
24.800295
-173.186451
78.769960
233.425531
3.133796
-67.266931
-217.201262
355.627019
-232.397321
-70.923788
-39.365974
169.745953
-25.404179
250.103139
475.850305
42.977325
218.854068
7.376372
142.488964
25.593710
697.298771
-97.841827
63.580483
140.300664
103.808675
-63.552706
-171.034312
87.062369
-245.849194
-24.626324
-124.337686
-278.233554
234.460886
4.729504
349.337519
-235.090040
-512.354992
36.319746
-135.737738
484.435139
51.975794
65.081009
-53.815986
-27.570922
-321.048879
-337.609953
-120.346799
216.282158
-501.787649
170.471035
166.775219
-281.754651
-134.910297
326.592058
870.547837
475.851023
-6.438645
113.652424
549.074673
-83.037313
-198.828071
26.839329
498.983985
-12.546943
30.159322
210.447881
100.528017
107.428572
690.039656
67.034466
319.042668
-377.806590
176.186100
-12.999524
-680.249573
179.581111
-16.244839
-258.553777
-315.132950
127.398408
-20.105586
216.511320
209.832154
-334.773219
-30.553493
71.025592
-195.641653
196.295332
434.106251
-409.872111
-492.886110
-97.204602
242.619972
101.300174
-11.388160
-813.090331
-266.282310
-7.916902
413.173903
312.695105
745.648605
-121.223142
-254.463616
-369.273239
126.678048
55.328876
51.779997
-602.910320
-251.575708
-744.729337
88.626352
16.887421
-604.409529
34.604741
184.260649
142.630260
176.463031
-86.976528
1.940724
-236.300468
226.496892
-187.201351
237.103205
-284.102106
353.398063
111.778112
-8.444083
-18.916766
-265.799205
336.458040
165.302623
69.359924
35.603124
365.921331
37.601138
34.136879
47.946119
130.311069
-147.154167
58.448034
330.325397
72.122187
508.028569
-234.653268
-43.236458
305.541736
158.348839
-37.840539
-52.059939
-509.663104
-12.152037
-24.845191
215.264434
-69.030711
239.339049
-105.501058
86.660899
-269.718213
141.751532
-123.949768
132.647386
452.881900
-84.971156
-33.443734
625.879141
-82.241872
340.992533
235.666998
635.562582
-521.322251
-377.296061
138.604305
353.161897
-52.187055
-490.452604
-62.837752
-27.478364
-93.302856
-294.559903
-157.566822
200.343136
-192.850824
-3.618979
-159.383190
622.702814
-4.379778
196.754978
128.512711