# vtk DataFile Version 2.0
patchtest_tri3_mix
ASCII
DATASET POLYDATA
POINTS 420 float
0.000000 0.000000 0.000000
1.000000 0.000000 0.000000
1.000000 1.000000 0.000000
0.000000 1.000000 0.000000
0.052632 0.000000 0.000000
0.105263 0.000000 0.000000
0.157895 0.000000 0.000000
0.210526 0.000000 0.000000
0.263158 0.000000 0.000000
0.315789 0.000000 0.000000
0.368421 0.000000 0.000000
0.421053 0.000000 0.000000
0.473684 0.000000 0.000000
0.526316 0.000000 0.000000
0.578947 0.000000 0.000000
0.631579 0.000000 0.000000
0.684211 0.000000 0.000000
0.736842 0.000000 0.000000
0.789474 0.000000 0.000000
0.842105 0.000000 0.000000
0.894737 0.000000 0.000000
0.947368 0.000000 0.000000
1.000000 0.052632 0.000000
1.000000 0.105263 0.000000
1.000000 0.157895 0.000000
1.000000 0.210526 0.000000
1.000000 0.263158 0.000000
1.000000 0.315789 0.000000
1.000000 0.368421 0.000000
1.000000 0.421053 0.000000
1.000000 0.473684 0.000000
1.000000 0.526316 0.000000
1.000000 0.578947 0.000000
1.000000 0.631579 0.000000
1.000000 0.684211 0.000000
1.000000 0.736842 0.000000
1.000000 0.789474 0.000000
1.000000 0.842105 0.000000
1.000000 0.894737 0.000000
1.000000 0.947368 0.000000
0.947368 1.000000 0.000000
0.894737 1.000000 0.000000
0.842105 1.000000 0.000000
0.789474 1.000000 0.000000
0.736842 1.000000 0.000000
0.684211 1.000000 0.000000
0.631579 1.000000 0.000000
0.578947 1.000000 0.000000
0.526316 1.000000 0.000000
0.473684 1.000000 0.000000
0.421053 1.000000 0.000000
0.368421 1.000000 0.000000
0.315789 1.000000 0.000000
0.263158 1.000000 0.000000
0.210526 1.000000 0.000000
0.157895 1.000000 0.000000
0.105263 1.000000 0.000000
0.052632 1.000000 0.000000
0.000000 0.947368 0.000000
0.000000 0.894737 0.000000
0.000000 0.842105 0.000000
0.000000 0.789474 0.000000
0.000000 0.736842 0.000000
0.000000 0.684211 0.000000
0.000000 0.631579 0.000000
0.000000 0.578947 0.000000
0.000000 0.526316 0.000000
0.000000 0.473684 0.000000
0.000000 0.421053 0.000000
0.000000 0.368421 0.000000
0.000000 0.315789 0.000000
0.000000 0.263158 0.000000
0.000000 0.210526 0.000000
0.000000 0.157895 0.000000
0.000000 0.105263 0.000000
0.000000 0.052632 0.000000
0.711667 0.847486 0.000000
0.501251 0.953074 0.000000
0.488681 0.143455 0.000000
0.335140 0.558965 0.000000
0.239099 0.725459 0.000000
0.048783 0.607274 0.000000
0.709985 0.568006 0.000000
0.130457 0.949157 0.000000
0.242715 0.338342 0.000000
0.606304 0.952307 0.000000
0.287055 0.642453 0.000000
0.761752 0.862838 0.000000
0.146089 0.341042 0.000000
0.146150 0.394595 0.000000
0.806074 0.518849 0.000000
0.519305 0.729516 0.000000
0.550512 0.050858 0.000000
0.423282 0.786926 0.000000
0.240384 0.613508 0.000000
0.857735 0.227961 0.000000
0.048872 0.500965 0.000000
0.855035 0.760635 0.000000
0.191714 0.204151 0.000000
0.807018 0.787654 0.000000
0.762935 0.271860 0.000000
0.048832 0.554084 0.000000
0.904094 0.311333 0.000000
0.663112 0.482518 0.000000
0.521054 0.617878 0.000000
0.705291 0.145951 0.000000
0.469391 0.812004 0.000000
0.096877 0.262150 0.000000
0.902135 0.577370 0.000000
0.194341 0.312771 0.000000
0.711888 0.347586 0.000000
0.616466 0.451870 0.000000
0.952258 0.127398 0.000000
0.465887 0.098352 0.000000
0.952163 0.287584 0.000000
0.661562 0.861614 0.000000
0.615167 0.620145 0.000000
0.570300 0.421293 0.000000
0.048896 0.447928 0.000000
0.445841 0.953185 0.000000
0.473714 0.645274 0.000000
0.241090 0.230983 0.000000
0.710055 0.678102 0.000000
0.662393 0.649200 0.000000
0.372496 0.885256 0.000000
0.568312 0.590862 0.000000
0.806626 0.410916 0.000000
0.854314 0.494977 0.000000
0.520245 0.673870 0.000000
0.235604 0.843454 0.000000
0.524423 0.390957 0.000000
0.336015 0.502778 0.000000
0.048477 0.767094 0.000000
0.808230 0.842466 0.000000
0.429484 0.503328 0.000000
0.420740 0.845546 0.000000
0.432635 0.274730 0.000000
0.855006 0.387762 0.000000
0.378058 0.758227 0.000000
0.567787 0.646771 0.000000
0.575910 0.249683 0.000000
0.428520 0.559978 0.000000
0.955908 0.075635 0.000000
0.474590 0.911169 0.000000
0.290407 0.253767 0.000000
0.185234 0.856824 0.000000
0.523410 0.448167 0.000000
0.384247 0.418070 0.000000
0.130421 0.049028 0.000000
0.094953 0.905983 0.000000
0.571427 0.364065 0.000000
0.238570 0.179188 0.000000
0.950816 0.604651 0.000000
0.144739 0.234661 0.000000
0.242524 0.392881 0.000000
0.413926 0.097647 0.000000
0.807082 0.679052 0.000000
0.474682 0.588922 0.000000
0.048635 0.713797 0.000000
0.853772 0.604168 0.000000
0.903661 0.845297 0.000000
0.290535 0.363944 0.000000
0.659320 0.950772 0.000000
0.758432 0.434128 0.000000
0.379262 0.700978 0.000000
0.445460 0.048882 0.000000
0.190821 0.805014 0.000000
0.952766 0.234892 0.000000
0.288475 0.199322 0.000000
0.287812 0.586455 0.000000
0.708427 0.050385 0.000000
0.786987 0.097490 0.000000
0.142052 0.830436 0.000000
0.854125 0.549144 0.000000
0.903066 0.736333 0.000000
0.096214 0.798510 0.000000
0.191792 0.750230 0.000000
0.805255 0.626249 0.000000
0.284848 0.860329 0.000000
0.573191 0.306563 0.000000
0.711026 0.402666 0.000000
0.679725 0.099653 0.000000
0.563141 0.861284 0.000000
0.761015 0.049446 0.000000
0.855801 0.334474 0.000000
0.906414 0.205843 0.000000
0.522568 0.505032 0.000000
0.385078 0.361338 0.000000
0.478505 0.361285 0.000000
0.527589 0.217527 0.000000
0.097461 0.853853 0.000000
0.580855 0.905354 0.000000
0.287323 0.145583 0.000000
0.145302 0.610846 0.000000
0.497860 0.050049 0.000000
0.048269 0.872579 0.000000
0.855643 0.814466 0.000000
0.953912 0.181835 0.000000
0.425015 0.729772 0.000000
0.427515 0.616535 0.000000
0.293057 0.048257 0.000000
0.148059 0.894279 0.000000
0.047416 0.183343 0.000000
0.242086 0.447714 0.000000
0.612276 0.845673 0.000000
0.431417 0.389512 0.000000
0.271062 0.093150 0.000000
0.193633 0.529985 0.000000
0.655328 0.050274 0.000000
0.651819 0.153264 0.000000
0.207718 0.901428 0.000000
0.527185 0.275591 0.000000
0.757522 0.597328 0.000000
0.805923 0.572807 0.000000
0.336876 0.446629 0.000000
0.944084 0.939141 0.000000
0.565951 0.810670 0.000000
0.808840 0.303431 0.000000
0.903459 0.364266 0.000000
0.095841 0.208956 0.000000
0.575506 0.197074 0.000000
0.380384 0.644223 0.000000
0.567265 0.702283 0.000000
0.856955 0.281236 0.000000
0.476491 0.475591 0.000000
0.338517 0.278095 0.000000
0.048278 0.236428 0.000000
0.860423 0.176812 0.000000
0.598969 0.151724 0.000000
0.096972 0.690051 0.000000
0.728163 0.188797 0.000000
0.765015 0.151986 0.000000
0.048634 0.289288 0.000000
0.194514 0.366782 0.000000
0.048723 0.660517 0.000000
0.760279 0.325671 0.000000
0.810364 0.192911 0.000000
0.146024 0.448363 0.000000
0.332920 0.843904 0.000000
0.097608 0.421600 0.000000
0.188384 0.146864 0.000000
0.813880 0.046811 0.000000
0.569505 0.478138 0.000000
0.385638 0.304408 0.000000
0.098002 0.097004 0.000000
0.143979 0.774946 0.000000
0.710574 0.457844 0.000000
0.289986 0.419368 0.000000
0.902743 0.470472 0.000000
0.290783 0.308704 0.000000
0.665528 0.313505 0.000000
0.903023 0.417290 0.000000
0.289297 0.474933 0.000000
0.193519 0.258771 0.000000
0.210615 0.092729 0.000000
0.662380 0.704349 0.000000
0.377183 0.816726 0.000000
0.617221 0.395126 0.000000
0.662128 0.812613 0.000000
0.757710 0.651770 0.000000
0.426383 0.673085 0.000000
0.145560 0.556502 0.000000
0.338273 0.334319 0.000000
0.192819 0.639813 0.000000
0.326346 0.105291 0.000000
0.950848 0.876243 0.000000
0.286256 0.698627 0.000000
0.566695 0.757142 0.000000
0.524371 0.898592 0.000000
0.471184 0.757138 0.000000
0.424074 0.900142 0.000000
0.479483 0.303967 0.000000
0.194024 0.475372 0.000000
0.757902 0.543015 0.000000
0.342972 0.948621 0.000000
0.552561 0.950428 0.000000
0.194350 0.420971 0.000000
0.144645 0.720036 0.000000
0.909443 0.152954 0.000000
0.477464 0.418557 0.000000
0.334904 0.166159 0.000000
0.143216 0.182232 0.000000
0.709881 0.623080 0.000000
0.718052 0.239978 0.000000
0.951031 0.551731 0.000000
0.662508 0.593793 0.000000
0.614897 0.675814 0.000000
0.048888 0.394979 0.000000
0.184767 0.045968 0.000000
0.239059 0.048172 0.000000
0.432624 0.216175 0.000000
0.048671 0.820355 0.000000
0.137499 0.132504 0.000000
0.767543 0.217486 0.000000
0.240964 0.558031 0.000000
0.382366 0.531188 0.000000
0.903397 0.683125 0.000000
0.096696 0.744153 0.000000
0.238574 0.131444 0.000000
0.525699 0.333397 0.000000
0.333333 0.671715 0.000000
0.097385 0.315221 0.000000
0.662760 0.538228 0.000000
0.951539 0.710744 0.000000
0.734718 0.100404 0.000000
0.048595 0.129326 0.000000
0.181750 0.948652 0.000000
0.385475 0.189484 0.000000
0.048815 0.342111 0.000000
0.951207 0.498769 0.000000
0.799405 0.900565 0.000000
0.921321 0.043493 0.000000
0.625389 0.215444 0.000000
0.854198 0.867162 0.000000
0.951834 0.340310 0.000000
0.334252 0.615247 0.000000
0.903596 0.790416 0.000000
0.951558 0.393059 0.000000
0.902439 0.900438 0.000000
0.602715 0.051351 0.000000
0.475582 0.532369 0.000000
0.241541 0.502771 0.000000
0.078779 0.044740 0.000000
0.712907 0.952414 0.000000
0.516781 0.840100 0.000000
0.759035 0.379784 0.000000
0.758472 0.705704 0.000000
0.951343 0.657391 0.000000
0.758407 0.759698 0.000000
0.289573 0.950185 0.000000
0.951361 0.445871 0.000000
0.901680 0.630829 0.000000
0.521042 0.100259 0.000000
0.904796 0.258416 0.000000
0.432246 0.332280 0.000000
0.045036 0.077815 0.000000
0.343347 0.051721 0.000000
0.631623 0.902467 0.000000
0.433142 0.154128 0.000000
0.145809 0.502337 0.000000
0.331700 0.785860 0.000000
0.817637 0.140843 0.000000
0.521807 0.561594 0.000000
0.097148 0.636099 0.000000
0.868131 0.127099 0.000000
0.159069 0.092103 0.000000
0.238029 0.782637 0.000000
0.710314 0.788972 0.000000
0.192379 0.694996 0.000000
0.854926 0.705620 0.000000
0.393937 0.047993 0.000000
0.078717 0.956644 0.000000
0.806854 0.733250 0.000000
0.540343 0.156053 0.000000
0.688710 0.903564 0.000000
0.260355 0.903086 0.000000
0.614266 0.787426 0.000000
0.288559 0.530625 0.000000
0.806255 0.464832 0.000000
0.239789 0.669263 0.000000
0.620812 0.279073 0.000000
0.663560 0.426566 0.000000
0.614650 0.731413 0.000000
0.615928 0.508216 0.000000
0.480683 0.191891 0.000000
0.145022 0.665358 0.000000
0.710306 0.733116 0.000000
0.884336 0.952956 0.000000
0.385803 0.247098 0.000000
0.383316 0.474672 0.000000
0.381402 0.587675 0.000000
0.318482 0.900675 0.000000
0.840202 0.090189 0.000000
0.337963 0.221874 0.000000
0.677582 0.200430 0.000000
0.235351 0.951231 0.000000
0.470808 0.864354 0.000000
0.951462 0.764432 0.000000
0.377210 0.134396 0.000000
0.758579 0.812786 0.000000
0.713644 0.293000 0.000000
0.568870 0.534647 0.000000
0.242400 0.284256 0.000000
0.740228 0.905354 0.000000
0.097291 0.582269 0.000000
0.807385 0.357143 0.000000
0.869427 0.048889 0.000000
0.615505 0.564288 0.000000
0.145681 0.287716 0.000000
0.573213 0.103082 0.000000
0.758127 0.488579 0.000000
0.810998 0.249256 0.000000
0.393794 0.946483 0.000000
0.820909 0.953721 0.000000
0.479932 0.247195 0.000000
0.904457 0.094147 0.000000
0.667908 0.256090 0.000000
0.850755 0.914555 0.000000
0.854559 0.441234 0.000000
0.710278 0.512969 0.000000
0.618474 0.337746 0.000000
0.193227 0.584800 0.000000
0.284033 0.809927 0.000000
0.518102 0.784803 0.000000
0.902503 0.523839 0.000000
0.097586 0.368345 0.000000
0.337668 0.390485 0.000000
0.951464 0.819262 0.000000
0.472585 0.701396 0.000000
0.285338 0.754795 0.000000
0.664265 0.370277 0.000000
0.430454 0.446520 0.000000
0.767605 0.950584 0.000000
0.093353 0.155383 0.000000
0.332404 0.728511 0.000000
0.626962 0.101784 0.000000
0.662353 0.759061 0.000000
0.043919 0.924510 0.000000
0.097422 0.528568 0.000000
0.097536 0.475008 0.000000
POLYGONS 762 3048
3 75 4 335
3 4 75 0
3 75 335 74
3 322 244 335
3 322 4 5
3 244 322 148
3 322 335 4
3 335 244 305
3 73 74 305
3 72 73 202
3 305 413 202
3 413 305 244
3 72 202 226
3 219 202 413
3 219 413 281
3 305 202 73
3 74 335 305
3 226 202 219
3 413 244 292
3 5 6 148
3 148 6 288
3 345 244 148
3 254 345 288
3 288 345 148
3 7 288 6
3 289 254 288
3 345 292 244
3 292 240 281
3 292 345 240
3 281 240 98
3 281 413 292
3 151 240 298
3 206 298 254
3 253 98 121
3 98 240 151
3 298 192 151
3 298 240 254
3 345 254 240
3 219 281 153
3 289 288 7
3 322 5 148
3 153 281 98
3 70 71 232
3 226 71 72
3 232 71 226
3 232 107 301
3 107 232 226
3 301 107 388
3 70 232 308
3 219 107 226
3 308 232 301
3 68 69 287
3 67 68 118
3 287 118 68
3 405 287 308
3 419 96 118
3 96 67 118
3 118 287 239
3 69 308 287
3 69 70 308
3 67 96 66
3 301 405 308
3 388 88 301
3 388 153 253
3 88 388 109
3 301 88 405
3 109 233 88
3 382 109 253
3 84 233 109
3 109 388 253
3 153 98 253
3 88 233 89
3 118 239 419
3 239 287 405
3 239 405 89
3 419 239 237
3 89 276 237
3 276 89 233
3 419 237 339
3 272 237 276
3 272 276 203
3 89 237 239
3 405 88 89
3 96 419 418
3 276 233 154
3 388 107 153
3 219 153 107
3 237 272 339
3 121 98 151
3 289 8 200
3 8 289 7
3 200 8 9
3 206 289 200
3 9 10 336
3 155 264 336
3 9 336 200
3 264 200 336
3 192 168 151
3 298 206 192
3 192 206 264
3 151 168 121
3 280 168 192
3 378 280 264
3 121 168 144
3 373 168 280
3 373 280 307
3 280 192 264
3 206 200 264
3 373 144 168
3 350 336 10
3 121 382 253
3 155 350 165
3 11 350 10
3 165 350 11
3 155 378 264
3 165 12 194
3 12 165 11
3 194 12 13
3 155 165 113
3 113 165 194
3 307 338 290
3 338 307 378
3 373 307 368
3 378 307 280
3 113 78 338
3 332 78 113
3 338 364 290
3 364 338 78
3 364 189 394
3 338 378 155
3 155 113 338
3 290 364 394
3 78 353 364
3 155 336 350
3 290 368 307
3 84 382 249
3 144 382 121
3 249 382 144
3 154 233 84
3 249 225 262
3 225 249 144
3 262 225 243
3 84 249 161
3 373 225 144
3 161 249 262
3 252 203 247
3 276 154 203
3 247 203 154
3 272 203 321
3 161 406 247
3 406 161 262
3 247 214 252
3 214 247 406
3 406 147 214
3 161 247 154
3 154 84 161
3 131 252 214
3 262 187 406
3 382 84 109
3 334 243 136
3 243 187 262
3 136 243 368
3 187 243 334
3 136 394 271
3 136 368 290
3 299 188 271
3 188 334 271
3 271 394 211
3 271 334 136
3 290 394 136
3 205 334 188
3 147 369 214
3 406 187 147
3 147 187 205
3 369 147 411
3 205 279 411
3 279 205 188
3 369 411 134
3 224 411 279
3 279 188 130
3 205 411 147
3 187 334 205
3 131 214 369
3 279 146 224
3 368 243 225
3 373 368 225
3 321 203 252
3 224 186 320
3 254 289 206
3 224 134 411
3 65 66 101
3 64 65 81
3 343 81 384
3 101 81 65
3 384 81 101
3 64 81 234
3 96 101 66
3 234 81 343
3 62 158 132
3 158 62 63
3 62 132 61
3 234 229 158
3 229 234 343
3 158 297 132
3 297 158 229
3 229 277 297
3 234 158 63
3 63 64 234
3 175 132 297
3 343 365 229
3 384 418 261
3 418 384 101
3 261 418 339
3 193 384 261
3 207 401 261
3 339 272 207
3 359 348 263
3 207 261 339
3 96 418 101
3 193 261 401
3 277 245 297
3 365 277 229
3 277 365 348
3 245 277 176
3 263 348 365
3 263 193 401
3 346 176 80
3 176 277 348
3 176 348 80
3 365 193 263
3 193 365 343
3 245 176 166
3 94 263 401
3 384 193 343
3 419 339 418
3 175 297 245
3 60 291 195
3 291 60 61
3 60 195 59
3 291 175 190
3 291 61 132
3 190 175 172
3 291 190 195
3 175 291 132
3 195 190 149
3 58 59 417
3 3 58 57
3 417 149 351
3 417 59 195
3 57 351 56
3 351 57 417
3 149 83 351
3 417 57 58
3 195 149 417
3 190 201 149
3 172 145 201
3 145 172 166
3 210 201 145
3 201 83 149
3 166 346 129
3 172 245 166
3 355 210 129
3 166 129 145
3 175 245 172
3 210 145 129
3 56 83 55
3 56 351 83
3 55 83 306
3 306 210 375
3 306 83 201
3 54 375 53
3 375 54 306
3 375 210 355
3 306 54 55
3 201 210 306
3 129 346 402
3 190 172 201
3 346 166 176
3 401 207 294
3 401 294 94
3 94 359 263
3 294 321 357
3 94 294 169
3 169 357 79
3 357 169 294
3 79 357 131
3 169 79 315
3 252 357 321
3 94 169 86
3 80 359 266
3 80 348 359
3 266 359 86
3 409 80 266
3 86 315 300
3 86 359 94
3 414 300 164
3 414 266 300
3 315 221 300
3 300 266 86
3 169 315 86
3 409 266 414
3 79 370 315
3 294 207 321
3 295 370 79
3 131 369 295
3 370 295 141
3 370 221 315
3 141 134 320
3 134 141 295
3 320 134 224
3 370 141 199
3 369 134 295
3 157 141 320
3 164 221 260
3 164 300 221
3 260 221 199
3 198 164 260
3 199 157 120
3 157 199 141
3 91 269 408
3 408 260 120
3 408 120 128
3 120 260 199
3 221 370 199
3 414 164 138
3 320 342 157
3 131 295 79
3 272 321 207
3 408 198 260
3 178 402 238
3 129 402 178
3 340 402 409
3 178 355 129
3 238 256 124
3 256 238 340
3 178 238 371
3 340 238 402
3 414 340 409
3 371 238 124
3 329 53 375
3 329 355 371
3 53 329 52
3 375 355 329
3 274 52 329
3 274 371 124
3 51 52 274
3 51 274 392
3 274 329 371
3 355 178 371
3 274 124 392
3 346 409 402
3 135 256 93
3 138 256 340
3 93 256 138
3 135 270 124
3 198 269 93
3 269 198 408
3 93 106 135
3 106 93 269
3 106 324 376
3 198 93 138
3 414 138 340
3 135 106 376
3 50 392 119
3 392 124 270
3 119 392 270
3 392 50 51
3 143 119 270
3 268 143 376
3 119 49 50
3 77 49 119
3 77 119 143
3 143 270 376
3 270 135 376
3 269 403 106
3 124 256 135
3 164 198 138
3 120 157 104
3 80 409 346
3 131 357 252
3 332 113 194
3 194 92 332
3 92 194 13
3 92 13 14
3 389 332 92
3 319 208 415
3 15 319 14
3 92 319 389
3 14 319 92
3 415 389 319
3 220 189 353
3 189 364 353
3 389 353 332
3 228 353 389
3 220 228 312
3 228 220 353
3 360 140 312
3 312 140 220
3 312 228 209
3 220 140 189
3 389 415 228
3 189 140 211
3 228 415 209
3 189 211 394
3 15 16 208
3 208 16 170
3 181 415 208
3 170 17 183
3 17 170 16
3 183 17 18
3 170 183 304
3 208 170 181
3 374 209 105
3 209 415 181
3 105 209 181
3 209 374 312
3 230 105 231
3 304 105 181
3 293 100 283
3 283 374 230
3 231 105 304
3 230 374 105
3 181 170 304
3 312 374 396
3 293 283 230
3 208 319 15
3 283 396 374
3 150 299 179
3 299 271 211
3 179 299 211
3 299 150 130
3 179 360 400
3 179 211 140
3 410 257 400
3 179 400 150
3 360 179 140
3 150 400 257
3 242 146 117
3 146 279 130
3 117 146 130
3 146 242 186
3 117 257 111
3 117 130 150
3 242 111 363
3 361 103 111
3 361 111 257
3 117 111 242
3 150 257 117
3 103 363 111
3 400 360 250
3 130 188 299
3 110 250 380
3 396 250 360
3 380 250 396
3 250 110 410
3 380 100 235
3 380 396 283
3 325 235 385
3 380 235 110
3 283 100 380
3 110 235 325
3 246 361 180
3 410 361 257
3 180 361 410
3 361 246 103
3 180 325 163
3 180 410 110
3 126 163 325
3 390 246 163
3 163 358 390
3 163 246 180
3 110 325 180
3 103 246 399
3 100 217 235
3 250 410 400
3 312 396 360
3 246 390 399
3 171 304 183
3 186 224 146
3 241 386 372
3 19 241 18
3 241 372 171
3 241 171 183
3 19 20 386
3 395 372 386
3 19 386 241
3 344 372 395
3 293 231 236
3 231 304 171
3 341 231 171
3 231 293 230
3 341 344 227
3 341 171 372
3 391 293 236
3 227 236 341
3 227 344 278
3 341 236 231
3 372 344 341
3 227 95 236
3 311 386 20
3 183 18 241
3 142 395 311
3 311 395 386
3 21 311 20
3 142 311 21
3 21 22 142
3 22 21 1
3 142 22 23
3 395 142 112
3 197 185 278
3 185 227 278
3 112 278 395
3 197 278 112
3 24 197 112
3 185 197 167
3 25 197 24
3 24 112 23
3 112 142 23
3 185 95 227
3 278 344 395
3 25 167 197
3 184 385 217
3 385 235 217
3 217 100 391
3 223 217 391
3 217 223 184
3 223 391 95
3 102 184 223
3 218 137 184
3 391 236 95
3 385 184 137
3 127 358 398
3 358 163 126
3 398 358 126
3 390 358 90
3 137 251 398
3 218 251 137
3 398 248 127
3 248 398 251
3 251 330 248
3 137 398 126
3 126 385 137
3 404 127 248
3 223 95 333
3 126 325 385
3 314 102 114
3 333 102 223
3 114 102 333
3 102 314 218
3 167 26 114
3 26 167 25
3 114 27 314
3 27 114 26
3 167 114 333
3 95 185 333
3 314 27 28
3 330 309 248
3 251 317 330
3 309 330 30
3 251 218 317
3 317 28 29
3 317 218 314
3 30 330 29
3 29 330 317
3 314 28 317
3 309 30 31
3 102 218 184
3 185 167 333
3 404 248 309
3 391 100 293
3 127 90 358
3 125 104 342
3 104 128 120
3 342 104 157
3 381 342 186
3 116 125 387
3 381 125 342
3 387 125 381
3 104 125 139
3 242 381 186
3 139 125 116
3 267 91 222
3 91 408 128
3 222 91 128
3 91 267 403
3 139 286 222
3 286 139 116
3 222 362 267
3 362 222 286
3 362 286 255
3 139 222 128
3 128 104 139
3 356 267 362
3 286 116 123
3 403 269 91
3 285 387 302
3 363 387 381
3 302 387 363
3 285 123 116
3 302 399 82
3 302 363 103
3 212 82 273
3 302 82 285
3 399 302 103
3 285 82 282
3 122 255 123
3 255 286 123
3 282 123 285
3 122 123 282
3 259 122 282
3 259 212 177
3 122 366 255
3 326 366 122
3 366 328 347
3 259 282 212
3 282 82 212
3 362 255 416
3 82 399 273
3 116 387 285
3 242 363 381
3 366 416 255
3 182 324 216
3 268 376 324
3 216 324 403
3 324 182 268
3 216 356 204
3 216 403 267
3 204 356 258
3 216 204 182
3 356 216 267
3 182 204 191
3 48 77 275
3 77 143 268
3 275 77 268
3 77 48 49
3 275 191 85
3 191 275 268
3 47 85 46
3 85 47 275
3 85 191 337
3 275 47 48
3 268 182 191
3 191 204 337
3 106 403 324
3 204 115 337
3 204 258 115
3 115 258 76
3 354 337 115
3 347 76 258
3 347 416 366
3 383 76 87
3 347 258 416
3 356 416 258
3 354 115 76
3 46 162 45
3 46 85 162
3 45 162 323
3 354 383 323
3 383 354 76
3 323 44 45
3 412 44 323
3 412 323 383
3 354 323 162
3 162 337 354
3 379 76 347
3 162 85 337
3 362 416 356
3 122 259 326
3 320 186 342
3 213 177 212
3 213 273 90
3 177 213 159
3 156 259 177
3 173 159 213
3 90 127 173
3 331 159 108
3 173 213 90
3 399 390 273
3 177 159 156
3 328 326 352
3 328 366 326
3 352 326 156
3 99 328 352
3 159 349 156
3 349 159 331
3 97 352 349
3 174 97 349
3 349 331 296
3 349 352 156
3 259 156 326
3 99 352 97
3 159 173 108
3 273 213 212
3 152 108 284
3 404 108 173
3 284 108 404
3 327 331 152
3 284 31 32
3 284 404 309
3 284 32 152
3 127 404 173
3 152 32 33
3 303 174 296
3 174 349 296
3 296 331 327
3 303 296 327
3 34 303 327
3 174 303 377
3 35 303 34
3 34 327 33
3 327 152 33
3 97 174 316
3 331 108 152
3 390 90 273
3 35 377 303
3 87 379 133
3 99 379 328
3 133 379 99
3 379 87 76
3 133 196 313
3 196 133 99
3 318 397 313
3 87 133 310
3 97 196 99
3 310 133 313
3 43 412 393
3 412 383 310
3 393 412 310
3 412 43 44
3 397 367 393
3 318 367 397
3 393 42 43
3 42 393 367
3 367 41 42
3 397 393 310
3 310 313 397
3 313 196 160
3 310 383 87
3 160 407 265
3 407 160 316
3 160 265 318
3 318 313 160
3 377 36 407
3 36 377 35
3 407 37 265
3 37 407 36
3 377 407 316
3 97 316 196
3 265 37 38
3 367 215 41
3 367 318 215
3 318 265 215
3 41 215 40
3 39 40 215
3 2 40 39
3 39 215 38
3 265 38 215
3 160 196 316
3 174 377 316
3 328 379 347
3 309 31 284
3 332 353 78
POINT_DATA 420
SCALARS P float 1
LOOKUP_TABLE default
470937427.942497
2515584972.349490
7083496908.452250
3156951436.682309
557880932.558258
626586614.162109
703653686.689604
783475688.682807
869445646.331828
958381016.071847
1051609310.773414
1151597083.504443
1251970401.924555
1359515740.432774
1470316163.281614
1585922983.865122
1705847426.382244
1830532469.815610
1958326533.059953
2092684076.568482
2227882173.648830
2372430662.164852
2700088995.321772
2888755939.066935
3085286187.783800
3288091235.241413
3497395034.895483
3712859266.904784
3935314155.148254
4163737101.050959
4398610273.394199
4641214441.008771
4886555518.841681
5143142012.944637
5404833024.427666
5670855641.719588
5945755935.798847
6226315881.736615
6512403073.723627
6811427480.957808
6863764992.399290
6615448144.798023
6379184990.529667
6144196978.989813
5914870999.503476
5689441301.712590
5468431698.406554
5251775827.076139
5039218681.691410
4832018670.819962
4627540420.680178
4429161697.487796
4234301392.053020
4044112946.463376
3857452156.378192
3675918206.046912
3499500757.342386
3326025179.746872
2958330807.825860
2766286420.431190
2579437361.896954
2400840513.440114
2227570500.738230
2061472743.093580
1901425513.327600
1747980138.689009
1600897430.027615
1460313071.702679
1326181164.254740
1198588029.195935
1077424286.083074
962844020.661644
854527428.694731
753025942.023245
657688438.170922
571061649.356129
5038801691.317719
4716913324.608004
1655599150.767092
2555324866.407213
2866046119.084357
1949115260.697878
3769461666.817620
3377860922.982565
1634069904.054838
5127606917.223927
2709053306.226577
5318318635.275570
1428951034.010019
1570467681.121840
3895851528.208194
3788551653.568861
1542246320.477332
3698172008.966551
2474875080.508134
2911064612.950904
1642106844.296628
5193137258.580916
1183987132.258862
5129283560.394466
2785941073.531907
1792153276.156950
3373883344.472376
3267614161.866686
3339533914.519883
2196160510.543458
3964735787.742811
1136863016.163795
4503695272.829024
1458235262.828895
2908031555.154233
3003491787.832311
2829197295.435891
1483628505.927520
3439446287.419418
4909359786.085324
3661673567.395613
2752346918.298053
1498800033.963870
4506111016.466687
3294004511.973475
1348053961.867016
4245345487.872545
3948102515.527631
3936496615.333699
3386735201.359665
3451377401.936640
3965604567.808629
3561420266.827751
3302439459.830231
2513844320.602554
2367527386.735219
2460033046.352320
5406410452.273095
2632109099.192478
3936737107.968185
1900299357.911178
3520107078.435462
3429475250.256310
3610763300.853686
2187037845.000736
2831344947.258680
2654928682.602585
4422076600.887585
1511314348.478064
3193186275.046251
2710442023.478920
2220431727.040916
751028268.316737
3096844375.027637
2554458271.019437
1216978673.966976
4822390416.217520
1165319704.172445
1787576248.119708
1371847191.036267
4611458686.258853
3079887379.472495
2283348361.064372
4447661596.324707
5822627798.151487
1818086986.510693
5335875764.151350
3386465653.092364
3208053153.213151
1314258912.074166
3012938342.928497
3233831212.738415
1366826485.877488
2515829022.877363
1908852227.340898
2256961182.921326
2958959813.959703
4200210436.447559
5265096347.470746
2704836099.420864
2814245995.683280
4364259533.028703
3531539298.013405
2364890612.212500
3111612489.374652
1986617922.408202
4527665483.149701
2038316142.745482
3310208013.751278
2975850263.679882
2913781709.441470
2043832501.983884
2288084289.978998
1963366622.580107
2908575402.074903
4800540847.596644
1231747283.413391
2207490155.287307
1425810540.953162
2829990350.112252
5463553752.949326
3035030997.900005
3470289943.808173
3037408420.813052
1019580438.099613
3219576354.392786
879766606.330195
1948102077.098114
4641674393.541463
2253829671.894377
1080823469.125600
2077650787.730107
1780845420.850521
2080270380.612898
3440958406.691298
2141758971.790532
4062823328.467426
4128367642.164863
2186958892.750285
6504658410.525749
4308147921.683863
3040698672.983139
3584792761.682569
1016003020.592973
2021854065.968930
2995776686.984603
3840473186.459080
3108046537.418227
2670642733.429461
1686158132.738728
991417859.562721
2733679564.257376
1942336276.572459
2335461064.462396
2398045084.453515
2376695972.809448
1108870176.840214
1602807718.103146
2112734612.543976
2975097261.119890
2643489670.005246
1718906480.614743
3626516000.391975
1535034539.167401
1047113421.881826
2165329483.913868
2957236995.453592
1873487067.346995
790966245.347149
2761834336.199473
3323740689.138283
1981586309.820150
4029278898.826489
1661564292.675022
2648446900.604083
3803536308.763837
2152260912.229653
1319321174.771838
970294939.887167
4188324953.298993
3664313659.388436
2797225221.187089
4679569875.008537
4303822974.599729
3250375287.628875
2037298233.400047
1846573019.151004
2431295970.023924
1213058617.570211
6194365965.043900
2909967080.736449
4074016546.711369
4552062443.284027
3738405342.344102
4186517352.283897
2107498288.391993
1912130816.254811
3830990592.017793
4105955003.346548
4904888313.573878
1753892351.400551
2570050499.498369
2790995847.138669
2475965349.060444
1379655649.130349
1043891153.651596
4003415783.225407
2543138819.928637
4573191670.650444
3714296843.135613
3894307343.026563
1362271993.764083
830709815.348861
925760321.846808
1730120902.402330
2644816312.350147
927424265.306867
2606813775.713912
2291594909.472990
2593822574.481895
5008558935.069896
2516657899.615524
1105626151.365907
2324130989.612563
2953815801.348699
1263268382.904835
3487487517.826752
5339452506.702809
2128935699.522977
775303569.204159
3546075401.991835
1549548072.209877
1232291316.223047
4333129908.345637
5664536559.567007
2444638096.689836
2207719141.211560
5726403966.214377
3652604763.484178
2750647732.343497
5539561711.130519
3872189775.988167
6108257268.338737
1661006897.794624
2871966322.730964
2116070840.981698
665311923.979869
5566285605.303778
4258310328.240034
3176015713.938766
4552169259.960156
5074995736.220531
4803670567.527394
3922292743.526615
4099239185.977130
4748541794.617960
1610784083.526944
3169606963.719652
2074235719.389942
676344798.820722
1121554744.798508
4986920170.524255
1559431994.160546
1874411704.481462
3387356504.253103
2484734778.151000
3123489081.419676
2161399004.099374
2581649344.228333
881215128.364424
3075798040.844948
4754192972.635653
2619299031.133558
4924797284.717765
1207691230.368900
3239934323.683437
4866464531.622907
1812093824.063682
5221148266.799045
3624268504.009817
4382240666.613803
2330252962.528704
3669430179.163742
2666269328.888474
2403951308.949109
3054298411.557992
4134003282.293873
3216284358.147865
1774303470.907814
2385212255.600374
4494460516.729675
6312110466.091533
1708277343.078452
2403669333.047502
2791139868.620642
3813341239.964337
2377169749.527479
1530976272.479630
2298791924.675105
3738357447.123911
4198367274.977859
5610781935.684757
1387198831.959581
5059152131.918406
2715876658.600821
3168756151.611804
1487843254.800641
5442136215.873699
1994206788.443435
3241377117.924701
2321283528.707368
3435608567.257378
1293979010.722762
1738340673.571500
3605370496.670758
2846846695.099378
4281594188.979058
6035627148.826428
1934438952.814590
2568545383.266137
2457322726.217004
5959117676.729718
3738257236.000723
3543216753.228227
2597494573.152621
2250694173.398183
3327308491.837234
4020375060.973645
4263586046.063104
1395831897.928393
2013531778.120257
5894109679.100843
3513945852.704528
3117677109.877511
2847793348.473321
2439590550.237604
5789095019.119397
898503055.754130
3165497792.506096
1862765820.242480
4433567882.324217
3008260503.385743
1834147400.763323
1681077224.492834
