# vtk DataFile Version 2.0
patchtest_tri3_mix
ASCII
DATASET POLYDATA
POINTS 81 float
0.000000 0.000000 0.000000
1.000000 0.000000 0.000000
1.000000 1.000000 0.000000
0.000000 1.000000 0.000000
0.125000 0.000000 0.000000
0.250000 0.000000 0.000000
0.375000 0.000000 0.000000
0.500000 0.000000 0.000000
0.625000 0.000000 0.000000
0.750000 0.000000 0.000000
0.875000 0.000000 0.000000
1.000000 0.125000 0.000000
1.000000 0.250000 0.000000
1.000000 0.375000 0.000000
1.000000 0.500000 0.000000
1.000000 0.625000 0.000000
1.000000 0.750000 0.000000
1.000000 0.875000 0.000000
0.875000 1.000000 0.000000
0.750000 1.000000 0.000000
0.625000 1.000000 0.000000
0.500000 1.000000 0.000000
0.375000 1.000000 0.000000
0.250000 1.000000 0.000000
0.125000 1.000000 0.000000
0.000000 0.875000 0.000000
0.000000 0.750000 0.000000
0.000000 0.625000 0.000000
0.000000 0.500000 0.000000
0.000000 0.375000 0.000000
0.000000 0.250000 0.000000
0.000000 0.125000 0.000000
0.117281 0.103923 0.000000
0.752834 0.114966 0.000000
0.619453 0.112184 0.000000
0.706808 0.563267 0.000000
0.117900 0.458262 0.000000
0.579770 0.812345 0.000000
0.355246 0.115742 0.000000
0.460415 0.343724 0.000000
0.337263 0.356173 0.000000
0.237302 0.721907 0.000000
0.376779 0.473377 0.000000
0.871138 0.792442 0.000000
0.571378 0.574519 0.000000
0.324009 0.238309 0.000000
0.865255 0.565773 0.000000
0.503566 0.707549 0.000000
0.893313 0.449587 0.000000
0.446004 0.856368 0.000000
0.894798 0.903489 0.000000
0.884540 0.119188 0.000000
0.738917 0.342408 0.000000
0.771137 0.659129 0.000000
0.485264 0.110588 0.000000
0.108828 0.331995 0.000000
0.777566 0.459352 0.000000
0.780186 0.884776 0.000000
0.245023 0.478170 0.000000
0.508577 0.459873 0.000000
0.234779 0.116077 0.000000
0.148684 0.589082 0.000000
0.373138 0.723075 0.000000
0.643611 0.451691 0.000000
0.112685 0.719095 0.000000
0.685349 0.228645 0.000000
0.143230 0.856051 0.000000
0.553631 0.224607 0.000000
0.112506 0.213309 0.000000
0.219532 0.233959 0.000000
0.220179 0.354747 0.000000
0.876468 0.334726 0.000000
0.433501 0.227508 0.000000
0.732182 0.772121 0.000000
0.662394 0.889569 0.000000
0.594203 0.339020 0.000000
0.437436 0.590426 0.000000
0.636656 0.685969 0.000000
0.885532 0.685796 0.000000
0.826527 0.228002 0.000000
0.299294 0.598447 0.000000
POLYGONS 128 512
3 31 0 32
3 60 69 68
3 32 68 31
3 4 32 0
3 32 60 68
3 31 68 30
3 29 30 55
3 55 69 70
3 55 30 68
3 70 69 45
3 29 55 36
3 68 69 55
3 70 36 55
3 32 4 60
3 5 38 60
3 38 5 6
3 6 7 54
3 39 59 42
3 6 54 38
3 38 54 72
3 45 40 70
3 60 38 45
3 40 72 39
3 72 40 45
3 67 39 72
3 40 39 42
3 38 72 45
3 45 69 60
3 54 67 72
3 5 60 4
3 58 70 40
3 27 28 61
3 27 61 64
3 61 28 36
3 61 36 58
3 66 64 41
3 28 29 36
3 27 64 26
3 25 26 66
3 25 24 3
3 24 25 66
3 24 66 23
3 26 64 66
3 64 61 41
3 61 80 41
3 80 61 58
3 80 42 76
3 42 80 58
3 59 76 42
3 41 80 62
3 36 70 58
3 62 80 76
3 41 49 23
3 49 41 62
3 22 49 21
3 49 22 23
3 37 21 49
3 49 62 47
3 76 47 62
3 41 23 66
3 40 42 58
3 54 7 34
3 65 67 34
3 67 54 34
3 8 9 33
3 33 9 10
3 8 33 34
3 7 8 34
3 65 34 33
3 59 75 63
3 59 39 75
3 75 52 63
3 52 75 65
3 79 52 65
3 63 52 56
3 75 67 65
3 44 59 63
3 65 33 79
3 75 39 67
3 33 51 79
3 51 33 10
3 51 1 11
3 1 51 10
3 79 51 12
3 12 51 11
3 56 71 48
3 56 52 71
3 71 13 48
3 13 71 12
3 48 13 14
3 71 79 12
3 56 48 46
3 71 52 79
3 35 63 56
3 47 44 77
3 47 76 44
3 77 35 53
3 35 77 44
3 53 35 46
3 77 53 73
3 63 35 44
3 47 77 37
3 21 37 74
3 21 74 20
3 19 74 57
3 73 74 37
3 73 57 74
3 74 19 20
3 37 77 73
3 73 53 43
3 37 49 47
3 43 53 78
3 78 46 15
3 14 15 46
3 15 16 78
3 35 56 46
3 78 16 43
3 18 57 50
3 57 73 43
3 50 57 43
3 57 18 19
3 50 17 2
3 17 50 43
3 50 2 18
3 43 16 17
3 78 53 46
3 14 46 48
3 44 76 59
POINT_DATA 81
SCALARS P float 1
LOOKUP_TABLE default
2991.540075
-21.959899
62.277354
-2727.361610
2741.022117
2274.378748
1854.136266
1505.262081
1081.203988
706.857811
331.747221
55.355316
14.105068
15.547864
52.908969
-138.359727
55.130729
-326.195135
-819.192361
-854.537847
-1323.994727
-1511.620972
-2381.821616
-2140.107995
-3007.692939
-2083.233805
-878.288324
-706.648645
80.260712
1071.219286
1575.348162
2235.853247
1885.220455
602.139287
900.120137
-71.193779
154.403814
-895.980941
1469.126283
500.028094
544.184703
-772.428466
113.294296
-430.359404
-246.473639
987.985897
-58.253971
-495.079808
13.212463
-930.837698
339.368408
254.879597
246.926871
-255.397127
1165.622212
663.726498
55.290041
-482.708688
77.517659
101.061655
1718.623702
-390.165482
-1149.823819
119.881041
-1438.062720
493.876780
-1787.564459
714.877748
1522.628520
1294.951782
780.589530
124.517719
956.355887
-404.811570
-596.638919
405.318475
-197.716337
-379.918792
39.505966
275.336523
-442.311592
