# vtk DataFile Version 2.0
patchtest_tri3_mix
ASCII
DATASET POLYDATA
POINTS 40 float
0.000000 -6.000000 0.000000
48.000000 -6.000000 0.000000
48.000000 6.000000 0.000000
0.000000 6.000000 0.000000
4.000000 -6.000000 0.000000
8.000000 -6.000000 0.000000
12.000000 -6.000000 0.000000
16.000000 -6.000000 0.000000
20.000000 -6.000000 0.000000
24.000000 -6.000000 0.000000
28.000000 -6.000000 0.000000
32.000000 -6.000000 0.000000
36.000000 -6.000000 0.000000
40.000000 -6.000000 0.000000
44.000000 -6.000000 0.000000
48.000000 -2.000000 0.000000
48.000000 2.000000 0.000000
44.000000 6.000000 0.000000
40.000000 6.000000 0.000000
36.000000 6.000000 0.000000
32.000000 6.000000 0.000000
28.000000 6.000000 0.000000
24.000000 6.000000 0.000000
20.000000 6.000000 0.000000
16.000000 6.000000 0.000000
12.000000 6.000000 0.000000
8.000000 6.000000 0.000000
4.000000 6.000000 0.000000
0.000000 2.000000 0.000000
0.000000 -2.000000 0.000000
38.339422 0.091536 0.000000
19.179699 0.291017 0.000000
43.173383 -0.018556 0.000000
23.923661 -0.239354 0.000000
28.680287 0.148437 0.000000
33.470588 -0.071366 0.000000
9.126054 -1.973365 0.000000
14.437748 -0.487976 0.000000
10.089264 1.931090 0.000000
4.796917 0.312454 0.000000
POLYGONS 48 192
3 0 4 29
3 29 4 39
3 36 4 5
3 36 5 6
3 36 39 4
3 6 7 37
3 8 31 7
3 7 31 37
3 33 8 9
3 31 8 33
3 6 37 36
3 38 36 37
3 28 39 27
3 39 28 29
3 27 3 28
3 26 27 39
3 39 38 26
3 24 25 37
3 38 39 36
3 25 38 37
3 23 24 31
3 31 33 23
3 38 25 26
3 31 24 37
3 33 22 23
3 33 10 34
3 11 12 35
3 30 35 12
3 10 11 34
3 35 34 11
3 13 14 32
3 14 15 32
3 15 14 1
3 32 15 16
3 30 12 13
3 30 13 32
3 33 21 22
3 33 34 21
3 20 21 34
3 19 20 35
3 34 35 20
3 17 18 32
3 17 32 16
3 18 30 32
3 2 17 16
3 30 18 19
3 30 19 35
3 33 9 10
POINT_DATA 40
SCALARS P float 1
LOOKUP_TABLE default
3667.218052
308.903470
192.527432
-1618.248241
-900.314356
4447.881894
-2483.361256
5145.822048
-4088.979781
4915.451272
-3338.017831
3182.955893
-1758.110448
1405.944913
-620.174524
-41.071512
286.427630
-958.937788
1578.936258
-3105.316919
3745.865254
-5661.824902
5617.786663
-7213.095829
5930.912252
-7449.223983
2962.593778
-3926.118805
4503.403617
-3919.490823
712.331556
1621.418759
-454.584822
-1365.376176
1172.036326
-898.509128
-1875.909819
-1969.478918
3622.609403
-768.459561
