# vtk DataFile Version 2.0
patchtest_tri3_mix
ASCII
DATASET POLYDATA
POINTS 76 float
0.000000 0.000000 0.000000
1.000000 0.000000 0.000000
1.000000 1.000000 0.000000
0.000000 1.000000 0.000000
0.125000 0.000000 0.000000
0.250000 0.000000 0.000000
0.375000 0.000000 0.000000
0.500000 0.000000 0.000000
0.625000 0.000000 0.000000
0.750000 0.000000 0.000000
0.875000 0.000000 0.000000
1.000000 0.125000 0.000000
1.000000 0.250000 0.000000
1.000000 0.375000 0.000000
1.000000 0.500000 0.000000
1.000000 0.625000 0.000000
1.000000 0.750000 0.000000
1.000000 0.875000 0.000000
0.875000 1.000000 0.000000
0.750000 1.000000 0.000000
0.625000 1.000000 0.000000
0.500000 1.000000 0.000000
0.375000 1.000000 0.000000
0.250000 1.000000 0.000000
0.125000 1.000000 0.000000
0.000000 0.875000 0.000000
0.000000 0.750000 0.000000
0.000000 0.625000 0.000000
0.000000 0.500000 0.000000
0.000000 0.375000 0.000000
0.000000 0.250000 0.000000
0.000000 0.125000 0.000000
0.145929 0.327002 0.000000
0.739561 0.707066 0.000000
0.381296 0.869492 0.000000
0.114212 0.450019 0.000000
0.331856 0.373740 0.000000
0.732372 0.415990 0.000000
0.122073 0.578697 0.000000
0.514808 0.873667 0.000000
0.127530 0.854132 0.000000
0.368253 0.653780 0.000000
0.136373 0.716203 0.000000
0.625288 0.630566 0.000000
0.598694 0.756997 0.000000
0.756820 0.845942 0.000000
0.890510 0.243780 0.000000
0.873423 0.376741 0.000000
0.599795 0.368156 0.000000
0.134104 0.175140 0.000000
0.776714 0.280771 0.000000
0.642876 0.882720 0.000000
0.735684 0.140946 0.000000
0.866535 0.503235 0.000000
0.866292 0.633742 0.000000
0.493201 0.601275 0.000000
0.365716 0.520709 0.000000
0.453797 0.126326 0.000000
0.601284 0.500142 0.000000
0.252475 0.250695 0.000000
0.279684 0.757847 0.000000
0.660989 0.258339 0.000000
0.865083 0.123165 0.000000
0.245250 0.617998 0.000000
0.739688 0.558733 0.000000
0.470021 0.437962 0.000000
0.872065 0.761779 0.000000
0.384035 0.241749 0.000000
0.605941 0.112059 0.000000
0.548859 0.216163 0.000000
0.454210 0.749036 0.000000
0.236721 0.477951 0.000000
0.482625 0.309575 0.000000
0.251154 0.884565 0.000000
0.877609 0.887333 0.000000
0.306853 0.125382 0.000000
POLYGONS 118 472
3 31 0 4
3 4 49 31
3 59 32 49
3 31 49 30
3 29 30 32
3 35 32 71
3 32 35 29
3 36 71 32
3 35 71 38
3 30 49 32
3 29 35 28
3 49 4 5
3 75 59 49
3 75 5 6
3 6 7 57
3 69 67 57
3 6 57 75
3 75 57 67
3 59 36 32
3 36 59 67
3 72 65 36
3 69 72 67
3 55 65 58
3 72 36 67
3 59 75 67
3 71 36 56
3 65 72 48
3 75 49 5
3 56 36 65
3 27 28 38
3 38 42 27
3 42 38 63
3 35 38 28
3 27 42 26
3 25 26 40
3 25 24 3
3 24 25 40
3 73 24 40
3 26 42 40
3 40 42 60
3 63 56 41
3 63 38 71
3 41 55 70
3 55 41 56
3 70 55 44
3 63 41 60
3 56 65 55
3 60 41 70
3 23 73 22
3 23 24 73
3 34 22 73
3 34 60 70
3 21 22 34
3 34 73 60
3 40 60 73
3 34 70 39
3 42 63 60
3 56 63 71
3 68 57 7
3 68 8 52
3 68 69 57
3 50 61 52
3 9 52 8
3 68 52 61
3 48 58 65
3 48 69 61
3 48 37 58
3 37 48 61
3 50 37 61
3 64 58 37
3 69 68 61
3 43 55 58
3 52 9 62
3 68 7 8
3 62 10 11
3 62 50 52
3 62 11 46
3 11 10 1
3 46 11 12
3 62 46 50
3 50 47 37
3 50 46 47
3 13 47 46
3 13 14 47
3 12 13 46
3 37 47 53
3 62 9 10
3 14 53 47
3 44 43 33
3 44 39 70
3 33 45 44
3 64 33 43
3 43 58 64
3 51 44 45
3 21 39 20
3 21 34 39
3 20 51 19
3 51 20 39
3 45 19 51
3 39 44 51
3 33 64 54
3 55 43 44
3 54 53 15
3 66 33 54
3 54 16 66
3 16 54 15
3 66 16 17
3 53 14 15
3 66 45 33
3 74 19 45
3 19 74 18
3 74 17 2
3 74 45 66
3 74 2 18
3 66 17 74
3 54 64 53
3 64 37 53
3 69 48 72
POINT_DATA 76
SCALARS P float 1
LOOKUP_TABLE default
3182.050829
-10.045045
33.243394
-3583.594316
2610.526242
2280.383806
1867.208673
1490.780105
1064.873525
755.735189
278.998721
44.581586
90.109246
16.964293
-13.071314
0.210712
-40.950399
-104.127614
-554.512558
-780.326978
-1296.322812
-1633.090750
-1908.505169
-2632.274986
-2620.607395
-1250.285780
-1709.428451
-378.057764
216.879180
782.639339
1637.664050
2071.095097
848.048734
-285.274028
-1354.947691
144.723988
479.116152
141.117817
-594.495837
-962.634448
-2068.895527
-508.440624
-1022.074023
-230.008266
-694.833812
-566.726672
59.807294
92.461899
317.619859
1605.576563
337.882051
-631.026783
561.271327
10.384981
-92.635698
-307.302599
-129.031811
1203.297402
-11.324978
1135.841825
-1214.688050
466.510394
354.877154
-466.870676
-109.996503
231.212260
-216.733198
947.894276
940.193170
758.140466
-796.581769
200.219909
581.276254
-1297.404656
-53.289660
1511.538577
