# vtk DataFile Version 2.0
patchtest_tri3_mix
ASCII
DATASET POLYDATA
POINTS 67 float
0.000000 0.000000 0.000000
1.000000 0.000000 0.000000
1.000000 1.000000 0.000000
0.000000 1.000000 0.000000
0.125000 0.000000 0.000000
0.250000 0.000000 0.000000
0.375000 0.000000 0.000000
0.500000 0.000000 0.000000
0.625000 0.000000 0.000000
0.750000 0.000000 0.000000
0.875000 0.000000 0.000000
1.000000 0.125000 0.000000
1.000000 0.250000 0.000000
1.000000 0.375000 0.000000
1.000000 0.500000 0.000000
1.000000 0.625000 0.000000
1.000000 0.750000 0.000000
1.000000 0.875000 0.000000
0.875000 1.000000 0.000000
0.750000 1.000000 0.000000
0.625000 1.000000 0.000000
0.500000 1.000000 0.000000
0.375000 1.000000 0.000000
0.250000 1.000000 0.000000
0.125000 1.000000 0.000000
0.000000 0.875000 0.000000
0.000000 0.750000 0.000000
0.000000 0.625000 0.000000
0.000000 0.500000 0.000000
0.000000 0.375000 0.000000
0.000000 0.250000 0.000000
0.000000 0.125000 0.000000
0.244139 0.710915 0.000000
0.867425 0.477020 0.000000
0.683429 0.293125 0.000000
0.460240 0.854274 0.000000
0.172531 0.571333 0.000000
0.850093 0.231375 0.000000
0.850707 0.735220 0.000000
0.578587 0.427875 0.000000
0.432641 0.146592 0.000000
0.881653 0.606871 0.000000
0.482718 0.568554 0.000000
0.699022 0.728815 0.000000
0.310103 0.853556 0.000000
0.332846 0.566138 0.000000
0.350246 0.284470 0.000000
0.604656 0.860054 0.000000
0.583091 0.147840 0.000000
0.869053 0.115301 0.000000
0.549034 0.715413 0.000000
0.875198 0.867960 0.000000
0.136605 0.142622 0.000000
0.281648 0.146325 0.000000
0.843099 0.349059 0.000000
0.744591 0.866282 0.000000
0.131168 0.431088 0.000000
0.725902 0.141773 0.000000
0.177739 0.287797 0.000000
0.756802 0.597286 0.000000
0.514357 0.286468 0.000000
0.274873 0.422774 0.000000
0.151789 0.848362 0.000000
0.624090 0.578859 0.000000
0.397887 0.710103 0.000000
0.723834 0.449903 0.000000
0.426800 0.423274 0.000000
POLYGONS 100 400
3 31 0 4
3 4 52 31
3 58 52 53
3 31 52 30
3 29 30 58
3 56 58 61
3 58 56 29
3 30 52 58
3 29 56 28
3 52 4 5
3 46 58 53
3 53 5 6
3 53 6 40
3 40 6 7
3 61 46 66
3 61 58 46
3 40 60 46
3 46 60 66
3 46 53 40
3 56 61 36
3 66 39 42
3 53 52 5
3 45 61 66
3 27 28 36
3 62 26 32
3 36 26 27
3 56 36 28
3 3 25 24
3 24 62 23
3 62 24 25
3 25 26 62
3 26 36 32
3 32 45 64
3 45 32 36
3 35 64 50
3 42 64 45
3 61 45 36
3 32 64 44
3 23 44 22
3 23 62 44
3 22 35 21
3 35 22 44
3 47 21 35
3 44 64 35
3 42 50 64
3 44 62 32
3 66 42 45
3 7 48 40
3 48 8 57
3 48 60 40
3 37 34 57
3 9 57 8
3 48 57 34
3 63 42 39
3 39 60 34
3 34 65 39
3 54 65 34
3 60 48 34
3 63 39 65
3 57 9 49
3 48 7 8
3 49 10 1
3 49 37 57
3 1 11 49
3 49 11 37
3 54 37 12
3 37 54 34
3 54 13 33
3 13 54 12
3 33 13 14
3 37 11 12
3 54 33 65
3 49 9 10
3 59 65 33
3 50 63 43
3 50 42 63
3 55 43 38
3 59 43 63
3 65 59 63
3 50 43 47
3 20 21 47
3 20 47 55
3 55 19 20
3 51 19 55
3 47 43 55
3 38 43 59
3 47 35 50
3 38 41 15
3 41 38 59
3 14 15 41
3 59 33 41
3 38 15 16
3 18 51 17
3 18 19 51
3 16 17 51
3 17 2 18
3 51 38 16
3 51 55 38
3 14 41 33
3 39 66 60
POINT_DATA 67
SCALARS P float 1
LOOKUP_TABLE default
3053.608439
-2.974711
-31.216235
-3876.648770
2608.446312
2280.336617
1828.625201
1512.611273
1077.812588
756.964725
245.621666
40.222117
14.357613
24.569135
-1.133939
-16.322727
-43.408497
-38.415460
-420.210164
-855.256685
-1181.913598
-1570.808253
-1989.879203
-2322.374456
-2619.835876
-1043.200643
-1850.463144
-229.119308
-41.089952
892.692573
1539.660151
2193.206934
-839.536154
-15.702920
389.521953
-1070.966565
-469.163007
176.029879
-235.119653
186.040708
1180.003597
-28.502435
-176.021154
-431.199367
-1326.962350
-238.248930
817.617654
-787.958628
871.500509
377.899887
-562.777146
-164.416363
1746.951761
1521.154766
176.113993
-495.818029
294.322584
598.448568
1007.781136
-115.108214
630.343767
405.951181
-1867.383779
-179.236794
-819.446949
85.355318
232.440374
