# vtk DataFile Version 2.0
cantilever_tri3_mix
ASCII
DATASET POLYDATA
POINTS 85 float
0.000000 -6.000000 0.000000
48.000000 -6.000000 0.000000
48.000000 6.000000 0.000000
0.000000 6.000000 0.000000
3.000000 -6.000000 0.000000
6.000000 -6.000000 0.000000
9.000000 -6.000000 0.000000
12.000000 -6.000000 0.000000
15.000000 -6.000000 0.000000
18.000000 -6.000000 0.000000
21.000000 -6.000000 0.000000
24.000000 -6.000000 0.000000
27.000000 -6.000000 0.000000
30.000000 -6.000000 0.000000
33.000000 -6.000000 0.000000
36.000000 -6.000000 0.000000
39.000000 -6.000000 0.000000
42.000000 -6.000000 0.000000
45.000000 -6.000000 0.000000
48.000000 -3.000000 0.000000
48.000000 -0.000000 0.000000
48.000000 3.000000 0.000000
45.000000 6.000000 0.000000
42.000000 6.000000 0.000000
39.000000 6.000000 0.000000
36.000000 6.000000 0.000000
33.000000 6.000000 0.000000
30.000000 6.000000 0.000000
27.000000 6.000000 0.000000
24.000000 6.000000 0.000000
21.000000 6.000000 0.000000
18.000000 6.000000 0.000000
15.000000 6.000000 0.000000
12.000000 6.000000 0.000000
9.000000 6.000000 0.000000
6.000000 6.000000 0.000000
3.000000 6.000000 0.000000
0.000000 3.000000 0.000000
0.000000 0.000000 0.000000
0.000000 -3.000000 0.000000
3.000000 -3.000000 0.000000
3.000000 0.000000 0.000000
3.000000 3.000000 0.000000
6.000000 -3.000000 0.000000
6.000000 0.000000 0.000000
6.000000 3.000000 0.000000
9.000000 -3.000000 0.000000
9.000000 0.000000 0.000000
9.000000 3.000000 0.000000
12.000000 -3.000000 0.000000
12.000000 0.000000 0.000000
12.000000 3.000000 0.000000
15.000000 -3.000000 0.000000
15.000000 0.000000 0.000000
15.000000 3.000000 0.000000
18.000000 -3.000000 0.000000
18.000000 0.000000 0.000000
18.000000 3.000000 0.000000
21.000000 -3.000000 0.000000
21.000000 0.000000 0.000000
21.000000 3.000000 0.000000
24.000000 -3.000000 0.000000
24.000000 -0.000000 0.000000
24.000000 3.000000 0.000000
27.000000 -3.000000 0.000000
27.000000 -0.000000 0.000000
27.000000 3.000000 0.000000
30.000000 -3.000000 0.000000
30.000000 -0.000000 0.000000
30.000000 3.000000 0.000000
33.000000 -3.000000 0.000000
33.000000 -0.000000 0.000000
33.000000 3.000000 0.000000
36.000000 -3.000000 0.000000
36.000000 -0.000000 0.000000
36.000000 3.000000 0.000000
39.000000 -3.000000 0.000000
39.000000 -0.000000 0.000000
39.000000 3.000000 0.000000
42.000000 -3.000000 0.000000
42.000000 -0.000000 0.000000
42.000000 3.000000 0.000000
45.000000 -3.000000 0.000000
45.000000 -0.000000 0.000000
45.000000 3.000000 0.000000
POLYGONS 128 512
3 0 4 39
3 39 4 40
3 39 40 38
3 38 40 41
3 38 41 37
3 37 41 42
3 37 42 3
3 3 42 36
3 4 5 40
3 40 5 43
3 40 43 41
3 41 43 44
3 41 44 42
3 42 44 45
3 42 45 36
3 36 45 35
3 5 6 43
3 43 6 46
3 43 46 44
3 44 46 47
3 44 47 45
3 45 47 48
3 45 48 35
3 35 48 34
3 6 7 46
3 46 7 49
3 46 49 47
3 47 49 50
3 47 50 48
3 48 50 51
3 48 51 34
3 34 51 33
3 7 8 49
3 49 8 52
3 49 52 50
3 50 52 53
3 50 53 51
3 51 53 54
3 51 54 33
3 33 54 32
3 8 9 52
3 52 9 55
3 52 55 53
3 53 55 56
3 53 56 54
3 54 56 57
3 54 57 32
3 32 57 31
3 9 10 55
3 55 10 58
3 55 58 56
3 56 58 59
3 56 59 57
3 57 59 60
3 57 60 31
3 31 60 30
3 10 11 58
3 58 11 61
3 58 61 59
3 59 61 62
3 59 62 60
3 60 62 63
3 60 63 30
3 30 63 29
3 11 12 61
3 61 12 64
3 61 64 62
3 62 64 65
3 62 65 63
3 63 65 66
3 63 66 29
3 29 66 28
3 12 13 64
3 64 13 67
3 64 67 65
3 65 67 68
3 65 68 66
3 66 68 69
3 66 69 28
3 28 69 27
3 13 14 67
3 67 14 70
3 67 70 68
3 68 70 71
3 68 71 69
3 69 71 72
3 69 72 27
3 27 72 26
3 14 15 70
3 70 15 73
3 70 73 71
3 71 73 74
3 71 74 72
3 72 74 75
3 72 75 26
3 26 75 25
3 15 16 73
3 73 16 76
3 73 76 74
3 74 76 77
3 74 77 75
3 75 77 78
3 75 78 25
3 25 78 24
3 16 17 76
3 76 17 79
3 76 79 77
3 77 79 80
3 77 80 78
3 78 80 81
3 78 81 24
3 24 81 23
3 17 18 79
3 79 18 82
3 79 82 80
3 80 82 83
3 80 83 81
3 81 83 84
3 81 84 23
3 23 84 22
3 18 1 82
3 82 1 19
3 82 19 83
3 83 19 20
3 83 20 84
3 84 20 21
3 84 21 22
3 22 21 2
CELL_DATA 128
SCALARS PRESSURE float 1
LOOKUP_TABLE default
90969470640.557968
-435337611456.891357
290347213089.613831
-424269116659.411316
291260688102.498108
-702603472943.938965
347368321988.929443
-351334176362.570984
323911000334.771912
-362959700510.953308
482798541451.677002
-233915044053.641235
323365671331.762024
-280013250156.662964
718272941982.655884
-317774688301.722839
140992145010.647125
-415958406840.104370
285212080810.902893
-284854055752.157654
297399555600.904175
-425125476564.381042
386490498530.881042
-298328795843.240723
296003783331.056213
-319513836880.051331
356365332358.557495
-271538840443.138489
224468025138.355438
-331103300438.017761
531072788038.946594
-245010974190.303650
80643571334.370285
-297744763595.955688
331223358223.524231
-183056580732.516602
237541023280.487701
-416603176331.487183
343968725133.380737
-187881698830.983154
201986800647.954498
-297919409996.599487
297757926426.579163
-157428403464.283844
212496228867.139862
-317202752682.560486
404981154620.918640
-202222871496.541290
137730339549.075562
-313375444132.178040
237826257717.387451
-151144160372.453217
199621667038.818085
-365383563994.007874
294700413260.334412
-120790713010.859665
148999672057.380585
-191696667436.088531
288560314855.927124
-114731245076.823380
182380042655.472687
-316727612220.169861
322162634446.759033
-232045718038.720459
61745757199.631973
-170701870468.664154
211345366122.799194
-267670770730.272247
50138222418.819290
-86776289648.138840
422380937481.663574
-202085568225.679321
90706925846.087234
-92592393916.756973
178611132138.039276
-100302729239.299438
177991513894.205109
-258386202661.608978
176057699140.968109
-105369813609.242661
32326730726.576305
-155231060021.058960
121662393627.234146
-57505085620.266144
125002597782.676910
-192898922804.370819
233742114973.057831
-99979733051.533752
101083963376.385178
-105456022286.184662
135962297160.955963
-62273205368.868919
81853505870.832321
-187796698116.162384
166276354086.484650
-89654794480.846176
16883163176.598646
-86447784452.986725
81433651295.341385
-39823181035.058121
70972565724.051865
-115673144485.396927
177395073094.437134
-87754884294.461212
56745747256.024887
-59892058744.509071
55347899556.176178
-21496155567.083057
55726054482.726814
-111159479376.265091
108136180248.195709
-43446070171.718735
9252727789.875807
-33693498431.274426
38525852055.137726
-5035180307.389688
46165432812.340866
-89723998083.934662
99461141620.560516
-62417382033.039108
21228240618.287403
-20375504571.192585
5783719577.467158
16697638350.560257
20170207036.015564
-45585639999.913017
86308065624.144638
-19198406073.036743
