# vtk DataFile Version 2.0
patchtest_tri3_mix
ASCII
DATASET POLYDATA
POINTS 77 float
0.000000 0.000000 0.000000
1.000000 0.000000 0.000000
1.000000 1.000000 0.000000
0.000000 1.000000 0.000000
0.125000 0.000000 0.000000
0.250000 0.000000 0.000000
0.375000 0.000000 0.000000
0.500000 0.000000 0.000000
0.625000 0.000000 0.000000
0.750000 0.000000 0.000000
0.875000 0.000000 0.000000
1.000000 0.125000 0.000000
1.000000 0.250000 0.000000
1.000000 0.375000 0.000000
1.000000 0.500000 0.000000
1.000000 0.625000 0.000000
1.000000 0.750000 0.000000
1.000000 0.875000 0.000000
0.875000 1.000000 0.000000
0.750000 1.000000 0.000000
0.625000 1.000000 0.000000
0.500000 1.000000 0.000000
0.375000 1.000000 0.000000
0.250000 1.000000 0.000000
0.125000 1.000000 0.000000
0.000000 0.875000 0.000000
0.000000 0.750000 0.000000
0.000000 0.625000 0.000000
0.000000 0.500000 0.000000
0.000000 0.375000 0.000000
0.000000 0.250000 0.000000
0.000000 0.125000 0.000000
0.774469 0.747909 0.000000
0.261999 0.732465 0.000000
0.560443 0.291360 0.000000
0.274506 0.123330 0.000000
0.141705 0.410651 0.000000
0.689702 0.880357 0.000000
0.525396 0.164573 0.000000
0.764082 0.434894 0.000000
0.355143 0.237042 0.000000
0.287048 0.369674 0.000000
0.797260 0.872944 0.000000
0.882596 0.368619 0.000000
0.524405 0.432321 0.000000
0.471937 0.566852 0.000000
0.225362 0.252634 0.000000
0.768838 0.139720 0.000000
0.884719 0.502874 0.000000
0.899465 0.882309 0.000000
0.437011 0.327600 0.000000
0.651620 0.381658 0.000000
0.135380 0.137465 0.000000
0.628138 0.522389 0.000000
0.667279 0.230552 0.000000
0.875920 0.235505 0.000000
0.110147 0.278840 0.000000
0.183135 0.608379 0.000000
0.571570 0.884592 0.000000
0.765095 0.300519 0.000000
0.647456 0.766064 0.000000
0.888277 0.112167 0.000000
0.640689 0.109639 0.000000
0.387452 0.460853 0.000000
0.696351 0.647728 0.000000
0.519986 0.767421 0.000000
0.763785 0.555293 0.000000
0.564945 0.650171 0.000000
0.409740 0.118612 0.000000
0.329964 0.595605 0.000000
0.449135 0.875756 0.000000
0.893121 0.760449 0.000000
0.223844 0.878937 0.000000
0.115176 0.836745 0.000000
0.339270 0.848962 0.000000
0.865289 0.637374 0.000000
0.407953 0.711750 0.000000
POLYGONS 120 480
3 31 0 4
3 4 52 31
3 46 52 35
3 31 52 30
3 29 30 56
3 56 46 36
3 56 30 52
3 36 46 41
3 56 36 29
3 52 46 56
3 29 36 28
3 52 4 5
3 40 46 35
3 35 5 6
3 6 7 68
3 38 40 68
3 6 68 35
3 35 68 40
3 41 40 50
3 41 46 40
3 63 50 44
3 50 63 41
3 34 44 50
3 63 44 45
3 50 40 38
3 36 41 57
3 38 68 7
3 35 52 5
3 69 41 63
3 27 28 57
3 26 57 73
3 57 26 27
3 36 57 28
3 3 25 24
3 73 72 24
3 33 72 73
3 24 72 23
3 73 24 25
3 25 26 73
3 73 57 33
3 33 69 76
3 69 33 57
3 65 76 67
3 45 76 69
3 45 67 76
3 33 76 74
3 41 69 57
3 70 76 65
3 23 74 22
3 23 72 74
3 22 70 21
3 70 22 74
3 58 21 70
3 74 76 70
3 70 65 58
3 74 72 33
3 63 45 69
3 45 44 53
3 7 62 38
3 62 7 8
3 54 62 47
3 9 62 8
3 38 62 54
3 51 53 44
3 51 34 54
3 59 39 51
3 47 59 54
3 39 59 43
3 59 51 54
3 34 38 54
3 51 39 53
3 47 62 9
3 44 34 51
3 47 10 61
3 10 47 9
3 61 1 11
3 1 61 10
3 47 61 55
3 55 61 11
3 43 59 55
3 43 55 12
3 12 13 43
3 43 13 48
3 55 11 12
3 39 43 48
3 55 59 47
3 14 48 13
3 67 53 64
3 67 45 53
3 32 64 75
3 66 64 53
3 75 64 66
3 67 64 60
3 39 66 53
3 60 64 32
3 58 20 21
3 20 58 37
3 32 37 60
3 19 37 42
3 37 19 20
3 60 37 58
3 65 60 58
3 37 32 42
3 65 67 60
3 75 48 15
3 71 32 75
3 71 15 16
3 15 71 75
3 71 16 17
3 48 14 15
3 71 42 32
3 42 18 19
3 18 42 49
3 49 17 2
3 49 42 71
3 49 2 18
3 71 17 49
3 75 66 48
3 39 48 66
3 50 38 34
POINT_DATA 77
SCALARS P float 1
LOOKUP_TABLE default
3254.739390
-31.001838
61.345484
-3817.218178
2555.244162
2333.621369
1863.937167
1469.221207
1079.085318
718.144098
313.786603
70.035379
37.498538
39.151162
-32.923340
10.083893
-90.350604
-333.269692
-598.862351
-743.651623
-1326.271046
-1677.892706
-1908.819601
-2464.822109
-2725.417428
-847.835785
-1619.954805
-265.369302
-254.952944
1112.625137
1864.680717
1943.264558
-299.004172
-908.265430
566.376444
1494.256875
516.651502
-445.537754
924.510784
101.847519
953.619191
488.293265
-720.408446
72.968295
185.312527
-229.421527
1358.268963
529.120415
23.162934
324.106086
592.050145
246.433515
1888.000426
-49.234658
491.077057
141.382971
758.184862
-590.171991
-861.766703
315.657607
-665.249497
269.508060
877.300823
183.765577
-220.894788
-813.193193
-102.087865
-328.640350
1385.902059
-356.862625
-1049.183954
-153.518100
-1413.575770
-2028.485446
-1484.323321
-103.756997
-737.545660
