# vtk DataFile Version 2.0
patchtest_tri3_mix
ASCII
DATASET POLYDATA
POINTS 20 float
0.000000 0.000000 0.000000
1.000000 0.000000 0.000000
1.000000 1.000000 0.000000
0.000000 1.000000 0.000000
0.333333 0.000000 0.000000
0.666667 0.000000 0.000000
1.000000 0.333333 0.000000
1.000000 0.666667 0.000000
0.666667 1.000000 0.000000
0.333333 1.000000 0.000000
0.000000 0.666667 0.000000
0.000000 0.333333 0.000000
0.237231 0.491576 0.000000
0.759129 0.250780 0.000000
0.756437 0.535070 0.000000
0.535077 0.756439 0.000000
0.490018 0.490024 0.000000
0.250786 0.759126 0.000000
0.491579 0.237235 0.000000
0.222254 0.222252 0.000000
POLYGONS 26 104
3 11 0 19
3 18 12 19
3 4 19 0
3 18 19 4
3 11 19 12
3 16 12 18
3 3 10 17
3 16 17 12
3 9 17 15
3 17 9 3
3 12 17 10
3 10 11 12
3 17 16 15
3 18 5 13
3 5 18 4
3 13 1 6
3 1 13 5
3 13 14 16
3 14 13 6
3 15 8 9
3 8 15 7
3 7 2 8
3 7 14 6
3 7 15 14
3 16 14 15
3 16 18 13
POINT_DATA 20
SCALARS P float 1
LOOKUP_TABLE default
452504029.801143
2491068355.798793
7088634780.861738
3130567763.537404
970911429.155081
1648051429.599872
3770856399.457416
5265212187.178689
5568151516.929568
4287915242.262815
1985270650.024516
1094261735.320701
2037718771.686321
2657559302.872358
3768886205.533140
3929272476.043724
2733972296.515773
2985630233.396649
1899350900.440846
1255548406.573514
