# vtk DataFile Version 2.0
patchtest_tri3_mix
ASCII
DATASET POLYDATA
POINTS 70 float
0.000000 0.000000 0.000000
1.000000 0.000000 0.000000
1.000000 1.000000 0.000000
0.000000 1.000000 0.000000
0.142857 0.000000 0.000000
0.285714 0.000000 0.000000
0.428571 0.000000 0.000000
0.571429 0.000000 0.000000
0.714286 0.000000 0.000000
0.857143 0.000000 0.000000
1.000000 0.142857 0.000000
1.000000 0.285714 0.000000
1.000000 0.428571 0.000000
1.000000 0.571429 0.000000
1.000000 0.714286 0.000000
1.000000 0.857143 0.000000
0.857143 1.000000 0.000000
0.714286 1.000000 0.000000
0.571429 1.000000 0.000000
0.428571 1.000000 0.000000
0.285714 1.000000 0.000000
0.142857 1.000000 0.000000
0.000000 0.857143 0.000000
0.000000 0.714286 0.000000
0.000000 0.571429 0.000000
0.000000 0.428571 0.000000
0.000000 0.285714 0.000000
0.000000 0.142857 0.000000
0.126626 0.766972 0.000000
0.254331 0.562453 0.000000
0.503481 0.857603 0.000000
0.879800 0.786295 0.000000
0.755017 0.564980 0.000000
0.582204 0.245750 0.000000
0.740055 0.260744 0.000000
0.630533 0.490635 0.000000
0.126464 0.495712 0.000000
0.381906 0.490237 0.000000
0.627902 0.767658 0.000000
0.368184 0.889819 0.000000
0.254870 0.707078 0.000000
0.106930 0.105319 0.000000
0.116230 0.893151 0.000000
0.875883 0.639575 0.000000
0.367096 0.131609 0.000000
0.507170 0.396830 0.000000
0.233737 0.127909 0.000000
0.640179 0.888727 0.000000
0.243302 0.854172 0.000000
0.251698 0.419275 0.000000
0.506093 0.553674 0.000000
0.630153 0.630808 0.000000
0.504493 0.702914 0.000000
0.759893 0.416861 0.000000
0.871122 0.330370 0.000000
0.753955 0.716196 0.000000
0.372716 0.359138 0.000000
0.844339 0.156274 0.000000
0.273660 0.265196 0.000000
0.877723 0.490064 0.000000
0.380670 0.628815 0.000000
0.129840 0.357312 0.000000
0.771586 0.866542 0.000000
0.640599 0.358614 0.000000
0.131428 0.229046 0.000000
0.669396 0.130707 0.000000
0.441028 0.250380 0.000000
0.513046 0.123917 0.000000
0.127757 0.633367 0.000000
0.379751 0.766153 0.000000
POLYGONS 110 440
3 27 0 41
3 64 41 46
3 4 41 0
3 27 41 64
3 25 26 61
3 58 61 64
3 64 61 26
3 26 27 64
3 36 25 61
3 46 41 4
3 46 5 44
3 5 46 4
3 66 44 67
3 6 44 5
3 46 44 58
3 49 58 56
3 49 61 58
3 37 56 45
3 66 56 58
3 50 60 37
3 56 37 49
3 58 44 66
3 36 61 49
3 45 56 66
3 58 64 46
3 29 49 37
3 23 24 68
3 36 68 24
3 40 28 68
3 24 25 36
3 23 68 28
3 3 22 42
3 21 42 48
3 28 42 22
3 28 48 42
3 42 21 3
3 22 23 28
3 68 36 29
3 40 48 28
3 40 29 60
3 30 69 52
3 60 69 40
3 29 37 60
3 40 69 48
3 48 20 21
3 20 48 39
3 39 30 19
3 39 48 69
3 19 30 18
3 39 19 20
3 69 30 39
3 52 69 60
3 40 68 29
3 36 49 29
3 67 44 6
3 67 7 65
3 7 67 6
3 34 65 57
3 8 65 7
3 67 65 33
3 45 33 63
3 45 66 33
3 63 34 53
3 34 63 33
3 33 65 34
3 35 45 63
3 65 8 57
3 33 66 67
3 57 9 10
3 54 34 57
3 1 10 9
3 57 10 11
3 53 54 59
3 53 34 54
3 54 12 59
3 12 54 11
3 59 12 13
3 54 57 11
3 35 63 53
3 57 8 9
3 32 53 59
3 52 50 51
3 52 60 50
3 55 51 32
3 35 51 50
3 50 45 35
3 52 51 38
3 47 18 30
3 30 38 47
3 17 47 62
3 38 62 47
3 55 62 38
3 47 17 18
3 38 51 55
3 51 35 32
3 30 52 38
3 43 31 55
3 32 59 43
3 13 14 43
3 35 53 32
3 43 14 31
3 62 16 17
3 16 62 31
3 15 2 16
3 15 31 14
3 15 16 31
3 55 31 62
3 55 32 43
3 13 43 59
3 50 37 45
POINT_DATA 70
SCALARS P float 1
LOOKUP_TABLE default
2886.891786
-21.105609
-69.955907
-3301.785739
2848.308071
2070.737729
1741.610495
1253.128373
833.220732
394.294321
39.144593
27.757344
20.597145
-6.559152
-59.680797
8.475522
-414.598297
-1015.353315
-1399.375622
-1869.891432
-2310.093597
-2761.841615
-1574.650886
-1128.914415
-291.738045
642.130196
1231.644340
2461.918682
-1651.981865
-287.548081
-1003.951739
-181.957700
-95.467133
606.184643
372.574757
19.901139
-83.468674
37.231639
-688.283737
-1230.701356
-775.035290
1567.207773
-1888.227831
-75.173317
1342.786068
321.283536
1772.227676
-638.347101
-1493.140151
462.092478
-165.256380
-262.331675
-519.803690
136.488875
110.224401
-309.890604
475.909699
318.167348
981.841310
0.468526
-464.394334
623.428934
-462.171448
304.777203
1473.969743
752.483610
869.024892
1080.229265
-681.234340
-1140.073041
