# vtk DataFile Version 2.0
patchtest_tri3_mix
ASCII
DATASET POLYDATA
POINTS 310 float
0.000000 0.000000 0.000000
1.000000 0.000000 0.000000
1.000000 1.000000 0.000000
0.000000 1.000000 0.000000
0.058824 0.000000 0.000000
0.117647 0.000000 0.000000
0.176471 0.000000 0.000000
0.235294 0.000000 0.000000
0.294118 0.000000 0.000000
0.352941 0.000000 0.000000
0.411765 0.000000 0.000000
0.470588 0.000000 0.000000
0.529412 0.000000 0.000000
0.588235 0.000000 0.000000
0.647059 0.000000 0.000000
0.705882 0.000000 0.000000
0.764706 0.000000 0.000000
0.823529 0.000000 0.000000
0.882353 0.000000 0.000000
0.941176 0.000000 0.000000
1.000000 0.058824 0.000000
1.000000 0.117647 0.000000
1.000000 0.176471 0.000000
1.000000 0.235294 0.000000
1.000000 0.294118 0.000000
1.000000 0.352941 0.000000
1.000000 0.411765 0.000000
1.000000 0.470588 0.000000
1.000000 0.529412 0.000000
1.000000 0.588235 0.000000
1.000000 0.647059 0.000000
1.000000 0.705882 0.000000
1.000000 0.764706 0.000000
1.000000 0.823529 0.000000
1.000000 0.882353 0.000000
1.000000 0.941176 0.000000
0.941176 1.000000 0.000000
0.882353 1.000000 0.000000
0.823529 1.000000 0.000000
0.764706 1.000000 0.000000
0.705882 1.000000 0.000000
0.647059 1.000000 0.000000
0.588235 1.000000 0.000000
0.529412 1.000000 0.000000
0.470588 1.000000 0.000000
0.411765 1.000000 0.000000
0.352941 1.000000 0.000000
0.294118 1.000000 0.000000
0.235294 1.000000 0.000000
0.176471 1.000000 0.000000
0.117647 1.000000 0.000000
0.058824 1.000000 0.000000
0.000000 0.941176 0.000000
0.000000 0.882353 0.000000
0.000000 0.823529 0.000000
0.000000 0.764706 0.000000
0.000000 0.705882 0.000000
0.000000 0.647059 0.000000
0.000000 0.588235 0.000000
0.000000 0.529412 0.000000
0.000000 0.470588 0.000000
0.000000 0.411765 0.000000
0.000000 0.352941 0.000000
0.000000 0.294118 0.000000
0.000000 0.235294 0.000000
0.000000 0.176471 0.000000
0.000000 0.117647 0.000000
0.000000 0.058824 0.000000
0.896098 0.829721 0.000000
0.888582 0.309044 0.000000
0.712074 0.599877 0.000000
0.175992 0.841241 0.000000
0.670168 0.941621 0.000000
0.453426 0.455052 0.000000
0.330864 0.687852 0.000000
0.479679 0.826481 0.000000
0.149696 0.365790 0.000000
0.943915 0.674071 0.000000
0.942479 0.412032 0.000000
0.666015 0.478134 0.000000
0.437577 0.656582 0.000000
0.330726 0.764538 0.000000
0.783467 0.503878 0.000000
0.200074 0.345811 0.000000
0.056064 0.432170 0.000000
0.101157 0.941693 0.000000
0.414664 0.597620 0.000000
0.789648 0.231965 0.000000
0.048752 0.953931 0.000000
0.814229 0.769034 0.000000
0.058741 0.160841 0.000000
0.150271 0.675666 0.000000
0.565346 0.769577 0.000000
0.660793 0.826294 0.000000
0.788221 0.940984 0.000000
0.480540 0.173874 0.000000
0.883453 0.888431 0.000000
0.530087 0.713759 0.000000
0.439222 0.394901 0.000000
0.887714 0.444105 0.000000
0.317303 0.370819 0.000000
0.050519 0.354902 0.000000
0.052958 0.665844 0.000000
0.338608 0.885577 0.000000
0.499095 0.413575 0.000000
0.198817 0.195373 0.000000
0.731982 0.063911 0.000000
0.769310 0.377371 0.000000
0.721665 0.826187 0.000000
0.733675 0.327322 0.000000
0.944196 0.797587 0.000000
0.503910 0.769182 0.000000
0.591582 0.404931 0.000000
0.381842 0.215198 0.000000
0.053411 0.289548 0.000000
0.620331 0.211497 0.000000
0.361208 0.827664 0.000000
0.514971 0.884110 0.000000
0.526629 0.125597 0.000000
0.270567 0.417115 0.000000
0.101009 0.058372 0.000000
0.486839 0.349541 0.000000
0.837159 0.605709 0.000000
0.214246 0.252776 0.000000
0.716534 0.711729 0.000000
0.778292 0.599721 0.000000
0.902052 0.947886 0.000000
0.206938 0.946279 0.000000
0.944216 0.276519 0.000000
0.650534 0.415781 0.000000
0.690350 0.367969 0.000000
0.667071 0.054268 0.000000
0.834269 0.474995 0.000000
0.725503 0.488360 0.000000
0.845986 0.941461 0.000000
0.266006 0.672038 0.000000
0.750616 0.769201 0.000000
0.367728 0.053087 0.000000
0.361810 0.322659 0.000000
0.786975 0.300374 0.000000
0.155329 0.056747 0.000000
0.051884 0.729674 0.000000
0.116596 0.119363 0.000000
0.940513 0.613044 0.000000
0.256724 0.201979 0.000000
0.880951 0.768744 0.000000
0.138941 0.522603 0.000000
0.859076 0.060279 0.000000
0.314974 0.547449 0.000000
0.944023 0.738233 0.000000
0.894855 0.707519 0.000000
0.778483 0.712991 0.000000
0.280282 0.886889 0.000000
0.432977 0.056221 0.000000
0.048102 0.049434 0.000000
0.941688 0.481497 0.000000
0.325936 0.098530 0.000000
0.746924 0.655469 0.000000
0.285607 0.725764 0.000000
0.297555 0.620455 0.000000
0.106488 0.758541 0.000000
0.511929 0.549805 0.000000
0.756513 0.883445 0.000000
0.867376 0.127407 0.000000
0.682800 0.654385 0.000000
0.299703 0.313455 0.000000
0.413408 0.496556 0.000000
0.279087 0.256867 0.000000
0.811385 0.658509 0.000000
0.682123 0.111600 0.000000
0.589973 0.156910 0.000000
0.537003 0.301314 0.000000
0.186329 0.570066 0.000000
0.260977 0.093227 0.000000
0.227086 0.728531 0.000000
0.543671 0.601588 0.000000
0.397305 0.712104 0.000000
0.840812 0.268578 0.000000
0.847591 0.195847 0.000000
0.887752 0.577583 0.000000
0.505543 0.240669 0.000000
0.387238 0.773111 0.000000
0.111600 0.824837 0.000000
0.914130 0.174890 0.000000
0.466019 0.712106 0.000000
0.204753 0.518319 0.000000
0.885269 0.513025 0.000000
0.624707 0.349519 0.000000
0.881130 0.648069 0.000000
0.169909 0.469095 0.000000
0.552305 0.941985 0.000000
0.714459 0.425945 0.000000
0.263234 0.943756 0.000000
0.205329 0.675643 0.000000
0.606114 0.466815 0.000000
0.228389 0.621903 0.000000
0.443913 0.768687 0.000000
0.498095 0.489842 0.000000
0.253029 0.571088 0.000000
0.830181 0.408676 0.000000
0.927359 0.062725 0.000000
0.117591 0.577347 0.000000
0.110454 0.192948 0.000000
0.228401 0.145076 0.000000
0.216318 0.054523 0.000000
0.539090 0.188728 0.000000
0.378469 0.381265 0.000000
0.825854 0.545818 0.000000
0.106790 0.261252 0.000000
0.493962 0.942064 0.000000
0.351145 0.597947 0.000000
0.066431 0.533849 0.000000
0.560431 0.512127 0.000000
0.539464 0.826445 0.000000
0.354791 0.156439 0.000000
0.616580 0.280749 0.000000
0.684486 0.540632 0.000000
0.405230 0.274816 0.000000
0.831766 0.342660 0.000000
0.747542 0.548825 0.000000
0.423915 0.334906 0.000000
0.268159 0.780428 0.000000
0.654686 0.711658 0.000000
0.675559 0.304384 0.000000
0.291090 0.150107 0.000000
0.256031 0.361763 0.000000
0.320279 0.942866 0.000000
0.237809 0.303421 0.000000
0.688533 0.768879 0.000000
0.567714 0.242470 0.000000
0.942600 0.547704 0.000000
0.450581 0.540870 0.000000
0.942627 0.343207 0.000000
0.500878 0.656737 0.000000
0.054213 0.901442 0.000000
0.435849 0.942329 0.000000
0.156235 0.232505 0.000000
0.593441 0.713399 0.000000
0.163617 0.895824 0.000000
0.231722 0.462976 0.000000
0.634835 0.883786 0.000000
0.333973 0.428533 0.000000
0.622052 0.530957 0.000000
0.729333 0.941436 0.000000
0.151996 0.947626 0.000000
0.376091 0.650569 0.000000
0.318752 0.207228 0.000000
0.184929 0.107393 0.000000
0.055701 0.847607 0.000000
0.055627 0.223907 0.000000
0.895827 0.238356 0.000000
0.350513 0.492041 0.000000
0.738711 0.135755 0.000000
0.455970 0.884755 0.000000
0.393708 0.107534 0.000000
0.159113 0.160571 0.000000
0.887194 0.376971 0.000000
0.102892 0.700619 0.000000
0.104814 0.636448 0.000000
0.944424 0.863171 0.000000
0.611098 0.941763 0.000000
0.627028 0.769404 0.000000
0.695367 0.883679 0.000000
0.094132 0.388574 0.000000
0.342027 0.264665 0.000000
0.732228 0.201276 0.000000
0.460352 0.112985 0.000000
0.381360 0.546130 0.000000
0.819152 0.882976 0.000000
0.419015 0.164613 0.000000
0.201650 0.408359 0.000000
0.675523 0.239853 0.000000
0.220899 0.891134 0.000000
0.165449 0.621740 0.000000
0.546658 0.367987 0.000000
0.056034 0.790485 0.000000
0.055968 0.599220 0.000000
0.468640 0.289186 0.000000
0.674316 0.173504 0.000000
0.574644 0.884028 0.000000
0.782495 0.826002 0.000000
0.420905 0.828177 0.000000
0.262999 0.516692 0.000000
0.599941 0.826514 0.000000
0.842006 0.825669 0.000000
0.948031 0.923795 0.000000
0.154282 0.786975 0.000000
0.165579 0.730456 0.000000
0.106325 0.324101 0.000000
0.240549 0.836132 0.000000
0.732810 0.265373 0.000000
0.621156 0.653793 0.000000
0.775562 0.442500 0.000000
0.396970 0.885297 0.000000
0.444830 0.225867 0.000000
0.135288 0.425868 0.000000
0.111161 0.882891 0.000000
0.646899 0.594507 0.000000
0.056361 0.104000 0.000000
0.099613 0.475623 0.000000
0.208905 0.784155 0.000000
0.561610 0.659641 0.000000
0.392673 0.440667 0.000000
0.164977 0.296491 0.000000
0.295219 0.473704 0.000000
0.303316 0.828706 0.000000
0.377850 0.942658 0.000000
0.840106 0.712409 0.000000
0.476319 0.600943 0.000000
0.546414 0.447418 0.000000
POLYGONS 550 2200
3 67 0 154
3 298 154 120
3 4 154 0
3 67 154 298
3 65 66 90
3 65 90 249
3 90 66 298
3 142 90 298
3 249 90 202
3 66 67 298
3 65 249 64
3 120 154 4
3 120 5 140
3 5 120 4
3 247 140 204
3 6 140 5
3 123 105 144
3 120 140 142
3 142 140 247
3 202 142 255
3 202 90 142
3 236 255 105
3 255 236 202
3 255 142 247
3 236 105 123
3 255 203 105
3 249 202 208
3 247 203 255
3 142 298 120
3 208 202 236
3 63 64 114
3 101 63 114
3 63 101 62
3 249 114 64
3 60 61 84
3 101 263 84
3 288 263 101
3 84 263 295
3 101 84 61
3 61 62 101
3 60 84 299
3 101 114 288
3 288 208 303
3 263 288 76
3 83 303 227
3 303 208 236
3 270 83 225
3 288 303 76
3 249 208 114
3 76 303 83
3 299 295 189
3 84 295 299
3 270 189 295
3 270 76 83
3 189 270 239
3 270 295 76
3 76 295 263
3 146 299 189
3 227 303 123
3 288 114 208
3 123 303 236
3 211 60 299
3 204 140 6
3 204 7 8
3 7 204 6
3 173 8 156
3 8 173 204
3 173 203 247
3 167 123 144
3 144 203 224
3 246 224 214
3 224 203 173
3 214 224 156
3 224 246 144
3 173 156 224
3 167 144 246
3 8 137 156
3 105 203 144
3 254 156 137
3 137 9 10
3 137 153 254
3 153 137 10
3 266 153 11
3 254 153 266
3 254 214 156
3 214 113 246
3 113 214 269
3 294 269 95
3 269 214 254
3 277 294 180
3 269 294 113
3 254 266 269
3 246 113 264
3 153 10 11
3 137 8 9
3 294 217 113
3 119 270 225
3 225 227 165
3 167 264 165
3 264 167 246
3 100 165 138
3 167 165 227
3 123 167 227
3 225 165 100
3 239 119 304
3 239 270 119
3 119 241 304
3 241 119 100
3 206 241 100
3 304 241 251
3 119 225 100
3 282 239 304
3 138 165 264
3 83 227 225
3 302 241 206
3 206 138 220
3 217 277 220
3 277 217 294
3 98 220 121
3 217 220 138
3 138 264 217
3 206 220 98
3 251 302 166
3 251 241 302
3 302 73 166
3 73 302 98
3 104 73 98
3 231 166 197
3 302 206 98
3 304 251 148
3 197 166 73
3 206 100 138
3 264 113 217
3 239 185 189
3 95 269 266
3 247 204 173
3 267 251 166
3 58 59 211
3 258 102 276
3 211 276 58
3 60 211 59
3 58 276 57
3 56 57 102
3 141 102 257
3 102 141 56
3 258 257 102
3 141 257 160
3 57 276 102
3 55 56 141
3 276 211 201
3 201 146 172
3 146 201 211
3 201 172 273
3 172 146 185
3 195 273 172
3 193 273 195
3 299 146 211
3 201 273 258
3 91 257 258
3 91 287 257
3 91 193 287
3 91 258 273
3 300 286 287
3 287 160 257
3 273 193 91
3 160 287 286
3 174 287 193
3 201 258 276
3 189 185 146
3 275 141 160
3 54 55 275
3 54 248 53
3 248 54 275
3 296 234 248
3 53 248 234
3 141 275 55
3 3 52 88
3 51 88 85
3 234 88 52
3 234 85 88
3 88 51 3
3 52 53 234
3 248 275 182
3 296 182 71
3 296 85 234
3 71 238 296
3 300 71 286
3 127 238 272
3 71 182 286
3 275 160 182
3 296 238 244
3 85 50 51
3 50 85 244
3 244 127 49
3 244 85 296
3 49 127 48
3 244 49 50
3 238 127 244
3 272 238 71
3 296 248 182
3 286 182 160
3 198 172 185
3 198 282 148
3 198 195 172
3 159 74 135
3 148 159 198
3 304 148 282
3 198 159 195
3 193 135 174
3 174 300 287
3 135 74 158
3 81 158 74
3 174 158 221
3 135 158 174
3 195 159 135
3 221 158 81
3 159 148 210
3 198 185 282
3 245 74 159
3 245 210 86
3 267 231 86
3 148 251 267
3 80 86 308
3 267 86 210
3 210 148 267
3 245 86 80
3 81 176 181
3 74 245 176
3 184 196 176
3 233 184 80
3 75 281 196
3 184 176 80
3 245 80 176
3 176 81 74
3 231 308 86
3 245 159 210
3 166 231 267
3 181 176 196
3 289 272 71
3 289 300 221
3 305 152 289
3 221 81 305
3 226 152 103
3 305 289 221
3 300 174 221
3 289 152 272
3 192 127 272
3 127 192 48
3 192 226 47
3 192 272 152
3 47 226 46
3 192 47 48
3 152 226 192
3 152 305 103
3 289 71 300
3 116 181 281
3 116 305 81
3 293 281 253
3 281 293 116
3 281 181 196
3 293 253 235
3 281 75 253
3 116 293 103
3 306 226 103
3 226 306 46
3 306 235 45
3 306 103 293
3 45 235 44
3 306 45 46
3 293 235 306
3 253 209 235
3 116 103 305
3 181 116 81
3 196 184 111
3 193 195 135
3 185 239 282
3 277 121 220
3 118 95 266
3 266 12 118
3 12 13 118
3 118 13 170
3 171 277 180
3 180 95 205
3 229 205 115
3 205 95 118
3 115 205 170
3 205 229 180
3 118 170 205
3 171 180 229
3 13 131 170
3 180 294 95
3 131 169 170
3 131 14 15
3 131 106 169
3 106 131 15
3 106 15 16
3 252 278 169
3 169 278 170
3 115 278 271
3 115 170 278
3 271 265 290
3 265 271 278
3 87 290 265
3 215 115 271
3 265 278 252
3 229 115 215
3 252 169 106
3 131 13 14
3 290 223 271
3 121 171 274
3 121 277 171
3 121 274 104
3 187 112 274
3 274 171 187
3 309 274 112
3 197 104 309
3 197 73 104
3 309 194 212
3 309 104 274
3 212 194 242
3 309 212 197
3 112 194 309
3 197 212 161
3 112 129 194
3 161 231 197
3 129 112 187
3 187 215 223
3 187 130 129
3 130 187 223
3 130 223 109
3 129 130 191
3 215 271 223
3 79 194 129
3 242 79 216
3 242 194 79
3 79 133 216
3 133 79 191
3 292 133 191
3 219 216 133
3 79 129 191
3 242 216 297
3 130 107 191
3 187 171 215
3 171 229 215
3 212 242 175
3 290 109 223
3 104 98 121
3 17 147 106
3 163 147 200
3 18 147 17
3 147 252 106
3 139 290 87
3 87 252 178
3 250 177 178
3 178 177 87
3 163 178 252
3 183 178 163
3 252 147 163
3 87 177 139
3 147 18 200
3 106 16 17
3 200 19 20
3 19 200 18
3 1 20 19
3 20 21 200
3 200 21 183
3 250 183 23
3 250 178 183
3 250 23 128
3 23 183 22
3 128 23 24
3 183 21 22
3 177 250 69
3 183 163 200
3 69 250 128
3 107 292 191
3 107 109 139
3 218 69 256
3 218 139 177
3 107 218 199
3 139 218 107
3 290 139 109
3 199 218 256
3 82 133 292
3 82 292 132
3 199 99 132
3 186 132 99
3 82 132 207
3 199 132 292
3 292 107 199
3 186 207 132
3 99 199 256
3 130 109 107
3 232 78 256
3 69 128 232
3 24 25 232
3 232 25 78
3 177 69 218
3 26 78 25
3 186 155 230
3 155 99 78
3 27 28 155
3 27 78 26
3 27 155 78
3 256 78 99
3 155 186 99
3 232 256 69
3 24 232 128
3 133 82 219
3 87 265 252
3 28 230 155
3 308 161 175
3 308 231 161
3 308 175 233
3 297 291 175
3 161 212 175
3 301 175 291
3 184 233 97
3 184 97 111
3 97 301 237
3 301 97 233
3 237 301 291
3 111 97 92
3 233 175 301
3 237 92 97
3 291 222 237
3 196 111 75
3 164 222 291
3 164 297 70
3 157 70 125
3 70 297 216
3 151 124 157
3 70 157 164
3 242 297 175
3 164 157 124
3 261 222 228
3 261 237 222
3 228 124 136
3 124 228 222
3 151 136 124
3 261 228 93
3 222 164 124
3 108 228 136
3 125 70 219
3 291 297 164
3 70 216 219
3 92 237 261
3 117 209 253
3 117 75 213
3 279 213 283
3 213 75 111
3 260 190 279
3 213 279 117
3 111 92 213
3 117 279 190
3 44 209 43
3 44 235 209
3 43 190 42
3 190 43 209
3 260 42 190
3 209 117 190
3 283 213 92
3 75 117 253
3 240 260 279
3 240 283 93
3 93 108 262
3 283 261 93
3 243 262 162
3 93 262 240
3 92 261 283
3 240 262 72
3 260 41 42
3 41 260 72
3 72 243 40
3 72 260 240
3 40 243 39
3 72 40 41
3 262 243 72
3 162 262 108
3 240 279 283
3 228 108 93
3 108 136 280
3 308 233 80
3 125 207 122
3 207 125 219
3 125 122 168
3 179 188 122
3 122 207 179
3 168 122 188
3 151 168 307
3 151 157 168
3 89 307 145
3 307 89 151
3 307 168 188
3 89 145 284
3 307 150 145
3 89 280 136
3 307 188 150
3 136 151 89
3 77 188 143
3 143 179 230
3 29 30 143
3 29 230 28
3 29 143 230
3 207 186 179
3 143 30 77
3 150 77 149
3 150 188 77
3 149 31 32
3 31 149 77
3 145 149 110
3 77 30 31
3 150 149 145
3 143 188 179
3 186 230 179
3 110 149 32
3 162 280 268
3 162 108 280
3 268 284 96
3 284 268 280
3 96 284 68
3 162 268 94
3 89 284 280
3 134 268 96
3 39 94 38
3 39 243 94
3 38 134 37
3 134 38 94
3 126 37 134
3 94 268 134
3 134 96 126
3 94 243 162
3 68 110 259
3 68 284 145
3 259 33 34
3 33 259 110
3 259 34 285
3 110 32 33
3 285 96 259
3 126 36 37
3 36 126 285
3 35 2 36
3 35 285 34
3 35 36 285
3 96 285 126
3 259 96 68
3 110 68 145
3 157 125 168
3 82 207 219
3 12 266 11
POINT_DATA 310
SCALARS P float 1
LOOKUP_TABLE default
772.195312
132.925129
-174.417390
-5241.062233
9868.791219
-1101.925777
8021.735042
1420.566840
2972.493017
1714.299046
2329.696991
1330.906579
1779.790736
790.963616
1415.012731
296.155032
1195.901442
-94.677233
644.028416
-237.984665
96.003417
-143.196779
180.953272
-74.038525
337.420806
91.949975
-27.043793
-81.382279
395.733015
-566.026613
295.231936
-323.909817
-443.536006
385.832038
-1263.862348
20.475532
-1.015901
-613.372493
-1548.682525
520.146996
-3255.141713
1006.193880
-4093.572588
582.370200
-3603.263603
-1845.544478
-974.841685
-6170.191510
846.637186
-8688.561835
-2452.498101
-12261.314566
245.671838
801.107747
-2857.141403
5386.498232
-3651.117368
1580.679605
2410.665272
-3699.275203
3703.434025
601.843779
7816.313993
-2219.386130
5383.111117
3910.386941
505.317692
9866.031331
585.142894
1215.077008
789.828188
13406.725989
-2630.199332
-727.101704
-5053.761801
-1630.926077
-15332.176384
-931.953814
440.942728
555.403122
-2931.319954
-7250.057159
1400.961183
9662.415059
-5833.777744
1127.921359
122.679407
-533.275200
15580.191067
133.084246
-4117.490608
-9817.227283
-3114.178533
-2673.080047
-4025.439890
480.703891
-3484.083331
-1989.079732
-338.247727
-462.349361
3224.279483
-11662.172329
-4305.680050
-4184.878640
1131.263715
18665.492944
795.811018
1000.173434
3026.638940
-1671.847102
-954.264880
2447.014836
2006.425530
1686.811538
4782.123984
1979.150185
-13484.469569
5621.028727
1370.286972
4726.788922
13468.999403
455.480991
1089.801003
-922.442655
1159.485641
307.545599
-1469.634877
2771.830121
-229.632428
-912.148893
1499.805046
1056.019398
-446.033735
345.240071
3619.270030
-12547.047449
-1647.750320
769.730693
-2546.055958
1778.624447
-9237.639787
510.051448
297.360813
1073.276785
-4181.484915
-2037.164504
1249.907221
734.240550
-856.716621
1700.901057
-101.540407
-243.488227
-11582.601308
1308.888386
-13794.551902
-276.401596
1984.491913
-909.536951
15562.953841
7268.071340
21245.529243
-1405.404173
-729.362183
-126.936354
-966.663139
6434.995492
-794.216356
1338.441512
-994.640563
732.636133
518.943993
1562.085158
-216.462545
1734.634805
-8062.616865
77.223305
-847.335863
-277.435028
956.474872
-845.920463
3050.462215
5838.130424
-671.413534
186.869377
2550.355139
2852.550043
1060.196524
-775.741558
-587.401234
-1363.173435
841.727077
-54.834975
-7634.335960
6742.410383
194.266084
4134.118217
-8225.378171
1774.480536
-7851.027326
908.133811
290.412021
-4622.173509
17220.192589
-7264.151222
-166.733268
934.621165
-375.253841
-1016.570581
307.018496
-5072.402389
-4566.214303
3828.786900
514.481329
-1600.255680
-2935.127739
1062.812011
-448.268126
3812.891923
-1234.777250
-1198.418427
2416.133458
-15927.994222
-793.983931
1132.116726
5849.287845
-9651.157676
10490.904066
-624.303618
-1304.829621
-1351.573884
-351.208058
-1001.313862
-647.201809
-1130.832369
-32526.197917
7142.342822
-8689.081100
1227.005423
-28393.168715
-6365.535106
2221.097884
-1420.713970
-448.982648
3376.879871
6393.688726
2448.941647
4605.211396
16951.267142
15871.858249
-5288.193471
-33.949785
-30.129090
396.564200
-10341.641865
2870.409301
-14763.693718
274.110397
-9016.477826
13108.550201
1360.431381
495.500945
-512.283941
-3622.301325
15593.218523
-2608.601016
1105.383171
740.223504
1796.156233
126.870169
2645.527795
7280.197299
-661.280965
11029.071646
-3473.824976
-300.608496
-22796.981692
-6754.647057
-1844.088711
396.971175
-7341.571254
-2167.553209
5811.388081
5557.758474
2347.798101
1384.301403
1243.173371
-28733.981930
4279.164273
5708.794466
-13540.520516
865.408269
-812.201301
-990.667849
4243.871538
-813.690635
30.212530
10457.897705
182.106514
7555.090725
-806.464017
16076.400472
-432.405928
1978.863979
4256.225900
-1264.063110
19721.970403
-11321.180703
774.085312
1135.105246
-1667.627698
