# vtk DataFile Version 2.0
patchtest_tri3_mix
ASCII
DATASET POLYDATA
POINTS 65 float
0.000000 0.000000 0.000000
1.000000 0.000000 0.000000
1.000000 1.000000 0.000000
0.000000 1.000000 0.000000
0.125000 0.000000 0.000000
0.250000 0.000000 0.000000
0.375000 0.000000 0.000000
0.500000 0.000000 0.000000
0.625000 0.000000 0.000000
0.750000 0.000000 0.000000
0.875000 0.000000 0.000000
1.000000 0.125000 0.000000
1.000000 0.250000 0.000000
1.000000 0.375000 0.000000
1.000000 0.500000 0.000000
1.000000 0.625000 0.000000
1.000000 0.750000 0.000000
1.000000 0.875000 0.000000
0.875000 1.000000 0.000000
0.750000 1.000000 0.000000
0.625000 1.000000 0.000000
0.500000 1.000000 0.000000
0.375000 1.000000 0.000000
0.250000 1.000000 0.000000
0.125000 1.000000 0.000000
0.000000 0.875000 0.000000
0.000000 0.750000 0.000000
0.000000 0.625000 0.000000
0.000000 0.500000 0.000000
0.000000 0.375000 0.000000
0.000000 0.250000 0.000000
0.000000 0.125000 0.000000
0.297620 0.741342 0.000000
0.486346 0.276646 0.000000
0.853446 0.861752 0.000000
0.134365 0.859332 0.000000
0.442943 0.142452 0.000000
0.525345 0.551571 0.000000
0.291628 0.153279 0.000000
0.848484 0.565954 0.000000
0.207029 0.437225 0.000000
0.338481 0.538791 0.000000
0.711645 0.658049 0.000000
0.856921 0.266738 0.000000
0.562332 0.400029 0.000000
0.250781 0.629506 0.000000
0.614014 0.158937 0.000000
0.709729 0.829748 0.000000
0.580950 0.701201 0.000000
0.403047 0.425191 0.000000
0.315698 0.300724 0.000000
0.424639 0.668879 0.000000
0.836793 0.415300 0.000000
0.135108 0.720544 0.000000
0.785760 0.145213 0.000000
0.145942 0.148674 0.000000
0.136819 0.559910 0.000000
0.382930 0.875223 0.000000
0.457253 0.808753 0.000000
0.572533 0.860968 0.000000
0.853427 0.720227 0.000000
0.151458 0.296240 0.000000
0.687830 0.498289 0.000000
0.692074 0.308789 0.000000
0.251526 0.857321 0.000000
POLYGONS 96 384
3 31 0 4
3 4 55 31
3 55 4 5
3 31 55 30
3 29 30 61
3 40 29 61
3 29 40 28
3 30 55 61
3 55 38 61
3 50 61 38
3 38 5 6
3 6 36 38
3 36 6 7
3 38 36 50
3 40 50 49
3 40 61 50
3 51 41 37
3 49 41 40
3 49 50 33
3 28 40 56
3 41 49 37
3 38 55 5
3 45 40 41
3 26 27 53
3 35 53 64
3 56 53 27
3 27 28 56
3 26 53 35
3 3 25 24
3 24 35 23
3 35 24 25
3 25 26 35
3 53 56 45
3 32 64 53
3 32 45 51
3 51 58 32
3 48 58 51
3 56 40 45
3 32 58 57
3 23 64 57
3 23 35 64
3 21 22 57
3 57 22 23
3 64 32 57
3 57 58 21
3 53 45 32
3 41 51 45
3 36 33 50
3 46 33 36
3 46 7 8
3 8 9 46
3 63 46 54
3 44 37 49
3 44 33 63
3 52 62 63
3 63 62 44
3 33 46 63
3 44 62 37
3 54 46 9
3 46 36 7
3 54 10 11
3 10 54 9
3 1 11 10
3 54 11 43
3 52 43 13
3 52 63 43
3 12 13 43
3 43 11 12
3 62 52 39
3 43 63 54
3 14 52 13
3 59 58 48
3 48 37 42
3 19 47 34
3 42 47 48
3 62 42 37
3 48 47 59
3 21 59 20
3 21 58 59
3 20 59 47
3 47 19 20
3 47 42 60
3 51 37 48
3 60 34 47
3 60 39 15
3 14 15 39
3 62 39 42
3 60 15 16
3 34 18 19
3 18 34 17
3 16 17 34
3 17 2 18
3 34 60 16
3 60 42 39
3 52 14 39
3 49 33 44
POINT_DATA 65
SCALARS P float 1
LOOKUP_TABLE default
3228.429617
-34.974563
-37.908174
-3530.883557
2607.224424
2276.580479
1831.420425
1514.691934
1083.180724
744.583316
301.113119
65.497652
24.344983
32.267803
-29.299057
30.119057
-78.539728
9.912012
-439.611260
-787.089034
-1218.090672
-1557.665669
-2064.388798
-2432.063657
-2664.203453
-1270.178913
-1699.333122
-349.199005
168.541608
682.331073
1786.518510
1957.840353
-1203.190697
680.240701
-221.871891
-2037.218176
1170.351279
-134.425977
1468.310438
-51.049605
362.485596
-224.530853
-259.652541
158.080103
262.864423
-338.815442
784.244973
-569.063795
-513.365806
279.215421
811.963845
-505.484244
95.046461
-1167.600320
483.681471
1725.089585
-529.610236
-1170.870303
-1087.617463
-791.882543
-194.949566
950.033882
3.561289
356.033165
-1275.236406
