# vtk DataFile Version 2.0
patchtest_tri3_mix
ASCII
DATASET POLYDATA
POINTS 297 float
0.000000 -6.000000 0.000000
48.000000 -6.000000 0.000000
48.000000 6.000000 0.000000
0.000000 6.000000 0.000000
1.500000 -6.000000 0.000000
3.000000 -6.000000 0.000000
4.500000 -6.000000 0.000000
6.000000 -6.000000 0.000000
7.500000 -6.000000 0.000000
9.000000 -6.000000 0.000000
10.500000 -6.000000 0.000000
12.000000 -6.000000 0.000000
13.500000 -6.000000 0.000000
15.000000 -6.000000 0.000000
16.500000 -6.000000 0.000000
18.000000 -6.000000 0.000000
19.500000 -6.000000 0.000000
21.000000 -6.000000 0.000000
22.500000 -6.000000 0.000000
24.000000 -6.000000 0.000000
25.500000 -6.000000 0.000000
27.000000 -6.000000 0.000000
28.500000 -6.000000 0.000000
30.000000 -6.000000 0.000000
31.500000 -6.000000 0.000000
33.000000 -6.000000 0.000000
34.500000 -6.000000 0.000000
36.000000 -6.000000 0.000000
37.500000 -6.000000 0.000000
39.000000 -6.000000 0.000000
40.500000 -6.000000 0.000000
42.000000 -6.000000 0.000000
43.500000 -6.000000 0.000000
45.000000 -6.000000 0.000000
46.500000 -6.000000 0.000000
48.000000 -4.500000 0.000000
48.000000 -3.000000 0.000000
48.000000 -1.500000 0.000000
48.000000 -0.000000 0.000000
48.000000 1.500000 0.000000
48.000000 3.000000 0.000000
48.000000 4.500000 0.000000
46.500000 6.000000 0.000000
45.000000 6.000000 0.000000
43.500000 6.000000 0.000000
42.000000 6.000000 0.000000
40.500000 6.000000 0.000000
39.000000 6.000000 0.000000
37.500000 6.000000 0.000000
36.000000 6.000000 0.000000
34.500000 6.000000 0.000000
33.000000 6.000000 0.000000
31.500000 6.000000 0.000000
30.000000 6.000000 0.000000
28.500000 6.000000 0.000000
27.000000 6.000000 0.000000
25.500000 6.000000 0.000000
24.000000 6.000000 0.000000
22.500000 6.000000 0.000000
21.000000 6.000000 0.000000
19.500000 6.000000 0.000000
18.000000 6.000000 0.000000
16.500000 6.000000 0.000000
15.000000 6.000000 0.000000
13.500000 6.000000 0.000000
12.000000 6.000000 0.000000
10.500000 6.000000 0.000000
9.000000 6.000000 0.000000
7.500000 6.000000 0.000000
6.000000 6.000000 0.000000
4.500000 6.000000 0.000000
3.000000 6.000000 0.000000
1.500000 6.000000 0.000000
0.000000 4.500000 0.000000
0.000000 3.000000 0.000000
0.000000 1.500000 0.000000
0.000000 0.000000 0.000000
0.000000 -1.500000 0.000000
0.000000 -3.000000 0.000000
0.000000 -4.500000 0.000000
46.372290 -0.019135 0.000000
1.546215 2.760002 0.000000
32.805481 -3.044312 0.000000
36.832509 1.488530 0.000000
44.829817 -3.127371 0.000000
36.008441 4.472452 0.000000
21.494283 -1.086607 0.000000
6.478401 -4.430323 0.000000
2.984745 -1.504310 0.000000
44.944607 -4.490364 0.000000
26.888496 -4.531003 0.000000
27.477982 -2.345851 0.000000
24.102767 -3.084945 0.000000
5.524830 1.538037 0.000000
17.780635 4.465815 0.000000
29.831303 0.054363 0.000000
33.561010 2.956247 0.000000
38.940564 -4.466352 0.000000
38.689817 -1.413256 0.000000
14.871177 -4.505008 0.000000
37.409655 -4.468908 0.000000
9.353333 -2.887626 0.000000
12.959560 4.459349 0.000000
40.232850 -1.400719 0.000000
25.903875 -3.314930 0.000000
4.808513 -4.464013 0.000000
11.240928 1.712993 0.000000
12.075843 3.052256 0.000000
34.302390 -2.915656 0.000000
4.747012 2.985704 0.000000
43.187415 0.171568 0.000000
40.385277 4.464748 0.000000
43.246413 1.597390 0.000000
32.507874 -1.628828 0.000000
21.230661 -4.550932 0.000000
41.907639 4.474619 0.000000
15.742474 2.989429 0.000000
15.911703 -1.383746 0.000000
40.075341 0.089611 0.000000
31.006184 1.013372 0.000000
17.603174 -2.796684 0.000000
16.397349 -4.461358 0.000000
35.247764 0.075771 0.000000
41.904638 -4.450863 0.000000
26.706787 3.682743 0.000000
22.585301 4.511259 0.000000
35.813304 -2.936380 0.000000
28.721859 4.503601 0.000000
40.105609 2.956988 0.000000
9.259496 -1.339385 0.000000
31.490824 -4.533074 0.000000
46.554410 -1.403253 0.000000
3.127364 0.073446 0.000000
10.816682 -1.409180 0.000000
17.929501 3.046825 0.000000
27.731165 -3.234914 0.000000
31.893415 2.945279 0.000000
33.103060 4.474569 0.000000
3.043961 2.881595 0.000000
36.880226 0.068257 0.000000
45.307092 -1.953612 0.000000
41.638352 1.553473 0.000000
17.815962 -4.393176 0.000000
38.435459 1.496538 0.000000
33.571408 0.080645 0.000000
40.363237 -2.919143 0.000000
19.112569 -4.424410 0.000000
28.662892 3.146302 0.000000
44.893408 2.950796 0.000000
46.447029 2.948361 0.000000
41.712294 2.985662 0.000000
7.760183 -2.857171 0.000000
12.443323 -2.480845 0.000000
4.657723 -2.963990 0.000000
11.148508 4.465524 0.000000
29.525856 -3.306258 0.000000
23.574715 -2.136152 0.000000
41.642116 0.107585 0.000000
44.596582 -1.090132 0.000000
1.515350 -0.695449 0.000000
22.326459 -3.148964 0.000000
27.896916 2.588760 0.000000
28.430561 -4.529341 0.000000
25.705471 2.705630 0.000000
41.893066 -2.924806 0.000000
19.998890 1.989273 0.000000
18.829629 -1.212591 0.000000
17.437803 0.220352 0.000000
1.734395 1.126960 0.000000
37.144953 -1.416599 0.000000
28.180911 -0.450288 0.000000
11.670955 -4.389177 0.000000
20.452720 0.695082 0.000000
26.747753 -1.318727 0.000000
1.530391 -2.569551 0.000000
28.992369 1.280634 0.000000
9.924299 -4.448934 0.000000
16.897890 2.243296 0.000000
24.137412 4.487342 0.000000
41.778272 -1.376110 0.000000
8.375593 2.952712 0.000000
25.757154 0.736662 0.000000
23.574225 1.462606 0.000000
34.020184 -1.381415 0.000000
43.378596 -4.469781 0.000000
7.635750 -1.323173 0.000000
30.959347 -2.025804 0.000000
3.026594 4.410195 0.000000
21.372425 2.493573 0.000000
27.731897 0.714643 0.000000
34.437811 -4.462955 0.000000
18.440123 1.451418 0.000000
35.187578 2.927496 0.000000
9.387285 1.572700 0.000000
11.939929 0.198589 0.000000
4.786479 0.081039 0.000000
10.989947 -2.936475 0.000000
21.470254 -2.699644 0.000000
31.229462 -3.189090 0.000000
3.171755 -4.530126 0.000000
24.506598 -0.438295 0.000000
13.282132 -4.520521 0.000000
14.800573 4.644834 0.000000
43.421312 -2.877200 0.000000
46.472579 4.470334 0.000000
38.478017 2.943007 0.000000
16.360208 4.349520 0.000000
43.433159 4.468439 0.000000
18.933319 -2.753749 0.000000
20.173401 -2.674859 0.000000
25.347478 -4.590479 0.000000
46.532045 -3.066823 0.000000
37.449409 4.482200 0.000000
4.504054 4.482819 0.000000
31.656862 4.462018 0.000000
30.331411 3.085913 0.000000
43.267453 -1.422257 0.000000
6.205255 -2.901839 0.000000
27.268698 4.582415 0.000000
29.316492 -2.297647 0.000000
22.751934 -1.325851 0.000000
38.839988 -2.938952 0.000000
9.352399 4.473120 0.000000
40.440394 -4.458202 0.000000
44.836741 1.511034 0.000000
7.471876 1.548333 0.000000
38.489248 0.070629 0.000000
1.570173 -4.318029 0.000000
10.199934 3.044882 0.000000
16.225366 -2.882818 0.000000
32.029120 -0.214731 0.000000
25.478777 4.553411 0.000000
4.497619 -1.457404 0.000000
17.373348 -1.181857 0.000000
6.058698 4.457569 0.000000
24.527764 2.916192 0.000000
19.458055 3.167769 0.000000
28.739810 -1.293620 0.000000
1.532969 4.393180 0.000000
8.454476 0.173148 0.000000
6.046212 -1.370803 0.000000
19.199718 0.111434 0.000000
12.328548 -1.055156 0.000000
3.109418 -3.074786 0.000000
26.800358 1.764862 0.000000
15.506418 -0.249519 0.000000
32.157836 1.578485 0.000000
25.612131 -2.405858 0.000000
7.671109 4.443006 0.000000
13.351044 2.285016 0.000000
29.995635 -4.553170 0.000000
35.904896 -4.466401 0.000000
23.051460 3.122266 0.000000
13.178534 -3.128027 0.000000
22.252838 1.714634 0.000000
33.639532 1.459705 0.000000
12.926978 1.048584 0.000000
14.123003 0.253735 0.000000
24.937102 -1.275511 0.000000
23.189889 0.002395 0.000000
36.838734 2.928867 0.000000
19.345354 4.525745 0.000000
20.349187 -1.119605 0.000000
8.182091 -4.415554 0.000000
14.882838 1.625491 0.000000
44.853536 0.152956 0.000000
38.901649 4.477147 0.000000
30.074489 2.100051 0.000000
35.593125 -1.413138 0.000000
30.170088 4.465139 0.000000
24.020750 -4.396675 0.000000
30.521866 -0.956305 0.000000
6.536331 2.939371 0.000000
13.660057 -1.002112 0.000000
46.452724 -4.501344 0.000000
16.286915 0.938630 0.000000
14.396370 -1.856697 0.000000
20.323856 -4.214018 0.000000
37.325075 -2.941705 0.000000
21.179572 3.634600 0.000000
22.663552 -4.499482 0.000000
26.401634 -0.304748 0.000000
3.645624 1.544857 0.000000
14.751004 -3.115457 0.000000
20.894626 4.650264 0.000000
35.230984 1.491022 0.000000
40.038078 1.527698 0.000000
10.312238 0.174209 0.000000
34.566529 4.488492 0.000000
6.580439 0.164713 0.000000
14.191991 3.379745 0.000000
32.972306 -4.501711 0.000000
24.730959 1.217816 0.000000
46.447119 1.455355 0.000000
43.309783 2.995454 0.000000
44.953031 4.455866 0.000000
21.680171 0.431216 0.000000
POLYGONS 512 2048
3 0 4 79
3 5 6 199
3 4 5 227
3 78 79 227
3 79 4 227
3 153 243 199
3 199 243 227
3 105 199 6
3 105 153 199
3 5 199 227
3 174 227 243
3 6 7 105
3 7 8 87
3 9 10 176
3 8 9 263
3 217 105 87
3 87 8 263
3 10 171 176
3 176 263 9
3 152 171 253
3 263 176 101
3 171 10 11
3 87 263 151
3 7 87 105
3 196 176 171
3 77 78 174
3 78 227 174
3 243 232 88
3 88 174 243
3 243 153 232
3 159 174 88
3 76 77 159
3 88 132 159
3 159 77 174
3 195 132 232
3 76 159 168
3 232 132 88
3 168 159 132
3 153 240 232
3 185 217 151
3 217 87 151
3 133 101 196
3 217 153 105
3 152 196 171
3 151 101 129
3 151 263 101
3 196 152 133
3 240 185 289
3 240 217 185
3 287 129 133
3 185 151 129
3 242 133 152
3 185 129 239
3 101 133 129
3 232 240 195
3 152 273 242
3 217 240 153
3 196 101 176
3 133 242 194
3 171 11 201
3 12 13 99
3 14 15 142
3 13 14 121
3 99 283 201
3 99 201 12
3 14 142 121
3 121 99 13
3 208 142 146
3 229 99 121
3 146 142 15
3 121 142 120
3 15 16 146
3 12 201 11
3 16 17 277
3 18 19 280
3 17 18 114
3 197 277 114
3 114 277 17
3 92 160 280
3 280 160 114
3 270 280 19
3 92 280 270
3 114 18 280
3 146 277 208
3 270 210 92
3 16 277 146
3 114 160 197
3 276 253 283
3 253 201 283
3 229 120 233
3 229 283 99
3 120 229 121
3 117 283 229
3 273 276 245
3 273 152 276
3 245 117 233
3 117 245 276
3 117 276 283
3 167 245 233
3 229 233 117
3 242 273 194
3 120 166 233
3 276 152 253
3 166 208 209
3 208 277 209
3 156 220 160
3 209 277 197
3 182 259 292
3 209 197 262
3 142 208 120
3 220 197 160
3 241 166 262
3 166 209 262
3 86 220 259
3 86 262 197
3 200 259 220
3 262 86 296
3 220 86 197
3 167 233 166
3 156 200 220
3 208 166 120
3 160 92 156
3 245 257 273
3 270 19 210
3 201 253 171
3 296 86 259
3 81 75 168
3 75 76 168
3 132 282 168
3 93 195 289
3 195 282 132
3 93 282 195
3 238 74 81
3 74 75 81
3 138 282 109
3 138 81 168
3 109 282 93
3 238 81 138
3 282 138 168
3 213 138 109
3 93 272 109
3 225 289 239
3 195 240 289
3 239 287 193
3 194 287 133
3 239 289 185
3 194 106 287
3 272 225 180
3 272 93 225
3 228 180 193
3 193 180 225
3 106 193 287
3 228 193 106
3 225 239 193
3 109 272 234
3 106 249 107
3 225 93 289
3 129 287 239
3 248 272 180
3 72 73 238
3 73 74 238
3 71 238 187
3 187 138 213
3 138 187 238
3 71 187 213
3 72 3 73
3 70 71 213
3 69 70 213
3 72 238 71
3 213 234 69
3 68 234 248
3 234 272 248
3 228 107 154
3 107 228 106
3 65 154 102
3 180 222 248
3 213 109 234
3 154 222 228
3 68 248 67
3 154 66 222
3 66 154 65
3 222 66 67
3 248 222 67
3 154 107 102
3 234 68 69
3 222 180 228
3 106 194 256
3 264 256 257
3 256 194 273
3 275 167 177
3 264 245 275
3 167 275 245
3 257 245 264
3 290 249 264
3 264 249 256
3 206 116 177
3 177 116 264
3 191 134 177
3 206 177 134
3 264 275 177
3 290 264 116
3 177 167 191
3 290 107 249
3 165 191 241
3 241 191 167
3 165 241 172
3 172 241 262
3 262 296 172
3 254 172 296
3 165 188 236
3 165 172 188
3 254 182 252
3 188 172 254
3 178 252 235
3 254 252 188
3 259 254 296
3 165 236 191
3 259 182 254
3 236 134 191
3 273 257 256
3 279 188 252
3 202 102 290
3 102 107 290
3 290 116 202
3 94 206 134
3 116 206 202
3 62 206 94
3 64 202 63
3 202 64 102
3 63 202 206
3 63 206 62
3 94 61 62
3 94 261 61
3 102 64 65
3 284 261 236
3 261 94 134
3 252 125 279
3 125 252 178
3 125 178 57
3 284 236 279
3 236 188 279
3 284 279 125
3 60 284 59
3 284 60 261
3 58 59 284
3 58 284 125
3 125 57 58
3 178 56 57
3 261 60 61
3 261 134 236
3 235 252 182
3 249 106 256
3 166 241 167
3 258 156 92
3 90 210 20
3 210 104 92
3 90 20 21
3 162 21 22
3 104 90 135
3 90 104 210
3 135 162 155
3 162 135 90
3 250 155 162
3 219 135 155
3 90 21 162
3 104 135 91
3 162 22 250
3 104 247 92
3 23 24 250
3 25 26 190
3 24 25 291
3 250 198 155
3 198 250 130
3 82 130 291
3 291 130 24
3 190 291 25
3 130 82 198
3 250 24 130
3 108 291 190
3 190 251 126
3 23 250 22
3 186 155 198
3 247 173 258
3 173 247 91
3 173 91 237
3 219 91 135
3 247 104 91
3 237 91 219
3 200 258 281
3 200 156 258
3 173 170 281
3 281 258 173
3 170 237 95
3 189 281 170
3 237 170 173
3 181 200 281
3 219 271 237
3 258 92 247
3 186 113 230
3 186 198 113
3 291 108 82
3 108 190 126
3 183 82 108
3 113 82 183
3 219 155 186
3 268 108 126
3 119 95 271
3 95 237 271
3 183 144 113
3 230 271 186
3 268 183 108
3 268 122 183
3 230 113 144
3 230 119 271
3 126 169 268
3 271 219 186
3 198 82 113
3 95 175 170
3 190 26 251
3 210 19 20
3 27 28 100
3 29 30 223
3 28 29 97
3 278 251 100
3 100 251 27
3 29 223 97
3 223 30 123
3 223 145 97
3 100 97 221
3 100 28 97
3 164 223 123
3 30 31 123
3 27 251 26
3 31 32 184
3 33 34 274
3 32 33 89
3 84 184 89
3 184 32 89
3 34 35 274
3 274 89 33
3 89 274 211
3 35 34 1
3 123 184 164
3 31 184 123
3 274 35 211
3 98 278 221
3 278 100 221
3 145 164 179
3 164 145 223
3 221 97 145
3 103 221 145
3 98 226 169
3 169 278 98
3 145 179 103
3 103 98 221
3 110 179 216
3 118 98 103
3 179 164 216
3 103 179 157
3 164 203 216
3 169 126 278
3 203 84 140
3 203 164 184
3 131 140 211
3 211 140 84
3 36 211 35
3 37 211 36
3 84 89 211
3 203 140 158
3 110 216 158
3 80 158 131
3 131 37 38
3 37 131 211
3 131 38 80
3 158 140 131
3 80 265 158
3 203 158 216
3 184 84 203
3 268 169 139
3 278 126 251
3 293 80 38
3 163 292 181
3 181 292 200
3 244 181 189
3 189 170 175
3 281 189 181
3 161 189 175
3 231 235 163
3 235 292 163
3 189 161 244
3 147 161 175
3 267 147 175
3 163 244 124
3 181 244 163
3 244 161 124
3 175 119 267
3 235 182 292
3 119 230 246
3 175 95 119
3 255 122 285
3 122 255 144
3 183 122 144
3 246 144 255
3 136 246 96
3 246 136 119
3 255 192 96
3 96 246 255
3 85 192 260
3 96 192 288
3 285 192 255
3 136 215 267
3 192 285 260
3 119 136 267
3 246 230 144
3 137 136 96
3 218 231 124
3 124 231 163
3 124 147 218
3 53 127 269
3 124 161 147
3 127 218 147
3 56 231 55
3 127 54 218
3 54 127 53
3 218 54 55
3 231 218 55
3 127 147 269
3 56 178 231
3 269 215 214
3 215 269 147
3 136 214 215
3 214 136 137
3 96 288 137
3 269 214 52
3 192 85 288
3 51 214 137
3 52 214 51
3 50 288 49
3 50 51 137
3 49 288 85
3 288 50 137
3 85 212 49
3 269 52 53
3 147 267 215
3 285 122 83
3 231 178 235
3 143 83 139
3 139 83 122
3 143 139 226
3 226 98 118
3 139 169 226
3 286 226 118
3 260 143 205
3 143 260 83
3 205 286 128
3 286 205 143
3 141 128 286
3 205 128 266
3 143 226 286
3 260 205 212
3 286 118 141
3 83 260 285
3 141 157 110
3 157 179 110
3 80 293 265
3 293 38 39
3 293 39 149
3 110 265 224
3 158 265 110
3 293 224 265
3 150 141 112
3 141 110 112
3 293 148 224
3 148 293 149
3 148 149 295
3 112 224 294
3 110 224 112
3 141 150 128
3 39 40 149
3 157 141 118
3 103 157 118
3 148 294 224
3 47 266 111
3 266 128 111
3 150 115 111
3 115 150 294
3 212 205 266
3 46 111 115
3 48 49 212
3 212 266 48
3 48 266 47
3 47 111 46
3 115 45 46
3 115 207 45
3 128 150 111
3 207 44 45
3 294 148 207
3 149 204 295
3 207 148 295
3 204 40 41
3 207 295 44
3 150 112 294
3 43 295 204
3 44 295 43
3 42 41 2
3 42 43 204
3 41 42 204
3 207 115 294
3 204 149 40
3 212 85 260
3 268 139 122
3 292 259 200
POINT_DATA 297
SCALARS P float 1
LOOKUP_TABLE default
1061.950368
-1.956733
-13.689756
-915.765538
958.856459
998.028873
922.127378
905.392153
858.370067
833.174470
795.752193
763.304357
750.412802
711.811872
673.253893
637.344317
604.542667
569.606299
554.283583
512.678432
494.949710
456.485852
423.100333
390.057319
353.608105
318.706509
283.423702
250.653647
217.810095
185.486821
153.003266
120.949057
88.428451
56.963343
21.110609
14.684196
2.683826
8.837527
-4.404872
2.285424
-12.344244
-0.188200
-32.288490
-77.273410
-105.225270
-140.720232
-171.778085
-204.786714
-237.262705
-269.353942
-302.905204
-336.052882
-369.338950
-409.596967
-453.386272
-491.045656
-521.759022
-537.899022
-565.236924
-691.391255
-643.718667
-685.098347
-667.733190
-782.118862
-785.767887
-806.026414
-824.972367
-854.348516
-885.654842
-921.714401
-971.094426
-958.763522
-1060.043366
-590.338203
-393.146325
-181.403030
80.912525
313.610708
570.003256
743.718029
0.475100
-485.145833
163.339076
-48.541748
28.926106
-164.349673
86.439050
600.108765
232.362473
55.828515
298.862783
138.345973
283.724622
-185.032475
-397.595475
3.763606
-157.596861
137.482856
47.361269
477.094335
159.571752
388.489062
-460.406227
39.928009
288.821877
623.995439
-182.574003
-422.623328
136.203328
-482.448420
-5.223419
-100.671615
-19.322095
81.983612
384.717585
-78.708792
-353.461765
156.124098
-5.794523
-81.905132
289.784019
456.769765
-6.331128
95.006399
-342.270954
-333.912196
122.724821
-258.311586
-88.161139
171.628743
241.983085
4.112515
14.791485
174.663261
-353.690894
248.219556
-176.555869
-203.148453
-423.110335
-6.441649
25.171142
-26.209098
443.022681
-40.669527
-10.555624
74.712810
402.944139
-263.289316
-38.333581
-14.098770
-72.312597
396.559031
275.917821
441.681286
-507.707765
226.739344
138.325025
-6.094802
14.217122
64.719552
296.858850
-140.231505
278.186552
-196.023447
59.124711
-177.014949
110.098764
-17.121920
-191.342890
55.147046
30.920676
525.956265
-78.935234
120.016565
368.109540
-93.768795
552.352943
-209.025997
-341.036589
32.540075
-417.853175
-43.071592
-97.281596
69.705357
72.276018
180.268295
111.471399
-624.430369
-161.831311
-49.557781
201.640376
-134.569741
-138.400660
-199.198247
-46.913167
-24.899263
383.710854
247.178405
190.286418
654.285559
23.993739
492.873407
-414.397269
43.045173
-12.696724
-104.479338
-457.988501
-56.469035
293.216638
237.863616
317.531809
8.964775
-143.712709
-613.015172
-225.503067
-227.674147
25.684422
423.120447
-233.090495
138.107598
130.215292
91.084323
-544.044968
115.459363
-9.851222
-192.496031
-5.833592
627.630130
-416.309906
320.923062
15.809090
-285.607560
200.966843
118.446552
-580.393022
-254.084030
-325.537504
86.194116
-696.441464
-23.908030
204.467342
-10.948639
142.107035
506.998975
-120.486266
31.063445
-64.818338
145.875464
-569.089243
-240.183359
257.939984
180.649061
-284.727331
409.831615
-162.948461
-65.152396
-119.832050
-47.771858
128.650757
-3.505476
-120.903021
-403.485533
119.400191
576.757239
-150.214768
-5.684385
-122.547173
-74.333218
60.678308
-224.169208
339.524842
59.887841
-446.593164
137.240212
22.867635
-120.264960
179.416189
415.590100
106.543404
-469.461930
363.225821
-0.755331
-228.281990
372.643536
-256.579427
-54.688508
-33.931501
-22.927786
-184.995513
-39.510151
-462.400907
221.079176
-101.037808
-4.819194
-54.894403
-37.395451
-36.665472
