# vtk DataFile Version 2.0
patchtest_tri3_mix
ASCII
DATASET POLYDATA
POINTS 66 float
0.000000 0.000000 0.000000
1.000000 0.000000 0.000000
1.000000 1.000000 0.000000
0.000000 1.000000 0.000000
0.125000 0.000000 0.000000
0.250000 0.000000 0.000000
0.375000 0.000000 0.000000
0.500000 0.000000 0.000000
0.625000 0.000000 0.000000
0.750000 0.000000 0.000000
0.875000 0.000000 0.000000
1.000000 0.125000 0.000000
1.000000 0.250000 0.000000
1.000000 0.375000 0.000000
1.000000 0.500000 0.000000
1.000000 0.625000 0.000000
1.000000 0.750000 0.000000
1.000000 0.875000 0.000000
0.875000 1.000000 0.000000
0.750000 1.000000 0.000000
0.625000 1.000000 0.000000
0.500000 1.000000 0.000000
0.375000 1.000000 0.000000
0.250000 1.000000 0.000000
0.125000 1.000000 0.000000
0.000000 0.875000 0.000000
0.000000 0.750000 0.000000
0.000000 0.625000 0.000000
0.000000 0.500000 0.000000
0.000000 0.375000 0.000000
0.000000 0.250000 0.000000
0.000000 0.125000 0.000000
0.384959 0.875060 0.000000
0.853471 0.558574 0.000000
0.833534 0.277910 0.000000
0.555966 0.856032 0.000000
0.414248 0.582006 0.000000
0.706552 0.867198 0.000000
0.710682 0.142291 0.000000
0.147459 0.314576 0.000000
0.275341 0.559154 0.000000
0.377244 0.139251 0.000000
0.494293 0.683698 0.000000
0.728608 0.739703 0.000000
0.299418 0.709706 0.000000
0.670349 0.283656 0.000000
0.420365 0.434160 0.000000
0.607067 0.711594 0.000000
0.857146 0.856073 0.000000
0.568714 0.543846 0.000000
0.718026 0.437801 0.000000
0.856098 0.705365 0.000000
0.312295 0.271165 0.000000
0.249655 0.850537 0.000000
0.181593 0.154062 0.000000
0.857481 0.411048 0.000000
0.137427 0.489315 0.000000
0.857505 0.142030 0.000000
0.473933 0.281922 0.000000
0.277840 0.411214 0.000000
0.135097 0.830027 0.000000
0.425571 0.777244 0.000000
0.550702 0.151678 0.000000
0.570490 0.400233 0.000000
0.710323 0.588610 0.000000
0.147743 0.665104 0.000000
POLYGONS 98 392
3 31 0 4
3 4 54 31
3 54 4 5
3 31 54 30
3 29 30 39
3 59 56 39
3 39 56 29
3 30 54 39
3 29 56 28
3 39 54 52
3 5 6 41
3 58 41 62
3 7 41 6
3 41 52 54
3 59 52 46
3 59 39 52
3 49 36 46
3 58 46 52
3 52 41 58
3 56 59 40
3 46 58 63
3 54 5 41
3 40 59 46
3 28 56 27
3 26 65 60
3 65 26 27
3 65 27 56
3 3 25 24
3 53 24 60
3 60 24 25
3 25 26 60
3 60 65 44
3 44 53 60
3 44 40 36
3 36 42 44
3 49 42 36
3 56 40 65
3 44 42 61
3 53 23 24
3 23 53 32
3 21 22 32
3 32 22 23
3 32 53 44
3 61 35 32
3 44 61 32
3 61 42 35
3 44 65 40
3 46 36 40
3 62 41 7
3 62 8 38
3 8 62 7
3 34 38 57
3 9 38 8
3 62 38 45
3 63 45 50
3 63 58 45
3 50 34 55
3 34 50 45
3 45 38 34
3 63 50 49
3 38 9 57
3 63 49 46
3 57 10 11
3 10 57 9
3 1 11 10
3 57 11 12
3 34 13 55
3 34 12 13
3 13 14 55
3 50 55 33
3 12 34 57
3 33 55 14
3 47 35 42
3 47 49 64
3 64 43 47
3 43 64 51
3 50 64 49
3 47 43 37
3 21 35 20
3 21 32 35
3 20 37 19
3 37 20 35
3 35 47 37
3 43 48 37
3 49 47 42
3 48 43 51
3 51 33 15
3 15 16 51
3 33 14 15
3 51 16 48
3 19 48 18
3 19 37 48
3 18 17 2
3 17 18 48
3 48 16 17
3 51 64 33
3 50 33 64
3 62 45 58
POINT_DATA 66
SCALARS P float 1
LOOKUP_TABLE default
3262.745437
-34.057424
-84.117504
-3675.641637
2575.260657
2304.171045
1831.169752
1511.011595
1068.800881
752.822957
313.407469
79.718920
-14.115831
41.840147
-13.134027
10.880933
-86.223154
38.478682
-373.279418
-853.912778
-1240.606318
-1529.234980
-2165.381301
-2357.656559
-2665.734949
-1193.190332
-1637.697837
-523.038791
163.465886
795.766630
1649.775444
2020.400012
-1075.233769
-58.193923
217.109947
-868.045586
-303.405047
-529.377678
634.784087
893.720232
-216.014961
1316.810510
-379.469657
-439.375593
-847.043918
414.675400
223.667153
-534.860838
-265.685840
-145.202801
108.293224
-137.343125
950.914524
-1378.289399
1640.482924
74.131815
-44.638852
302.149787
665.900833
418.815270
-1895.205782
-1197.071275
939.526530
284.831980
-114.396101
-834.640201
