# vtk DataFile Version 2.0
patchtest_tri3_mix
ASCII
DATASET POLYDATA
POINTS 480 float
0.000000 0.000000 0.000000
1.000000 0.000000 0.000000
1.000000 1.000000 0.000000
0.000000 1.000000 0.000000
0.050000 0.000000 0.000000
0.100000 0.000000 0.000000
0.150000 0.000000 0.000000
0.200000 0.000000 0.000000
0.250000 0.000000 0.000000
0.300000 0.000000 0.000000
0.350000 0.000000 0.000000
0.400000 0.000000 0.000000
0.450000 0.000000 0.000000
0.500000 0.000000 0.000000
0.550000 0.000000 0.000000
0.600000 0.000000 0.000000
0.650000 0.000000 0.000000
0.700000 0.000000 0.000000
0.750000 0.000000 0.000000
0.800000 0.000000 0.000000
0.850000 0.000000 0.000000
0.900000 0.000000 0.000000
0.950000 0.000000 0.000000
1.000000 0.050000 0.000000
1.000000 0.100000 0.000000
1.000000 0.150000 0.000000
1.000000 0.200000 0.000000
1.000000 0.250000 0.000000
1.000000 0.300000 0.000000
1.000000 0.350000 0.000000
1.000000 0.400000 0.000000
1.000000 0.450000 0.000000
1.000000 0.500000 0.000000
1.000000 0.550000 0.000000
1.000000 0.600000 0.000000
1.000000 0.650000 0.000000
1.000000 0.700000 0.000000
1.000000 0.750000 0.000000
1.000000 0.800000 0.000000
1.000000 0.850000 0.000000
1.000000 0.900000 0.000000
1.000000 0.950000 0.000000
0.950000 1.000000 0.000000
0.900000 1.000000 0.000000
0.850000 1.000000 0.000000
0.800000 1.000000 0.000000
0.750000 1.000000 0.000000
0.700000 1.000000 0.000000
0.650000 1.000000 0.000000
0.600000 1.000000 0.000000
0.550000 1.000000 0.000000
0.500000 1.000000 0.000000
0.450000 1.000000 0.000000
0.400000 1.000000 0.000000
0.350000 1.000000 0.000000
0.300000 1.000000 0.000000
0.250000 1.000000 0.000000
0.200000 1.000000 0.000000
0.150000 1.000000 0.000000
0.100000 1.000000 0.000000
0.050000 1.000000 0.000000
0.000000 0.950000 0.000000
0.000000 0.900000 0.000000
0.000000 0.850000 0.000000
0.000000 0.800000 0.000000
0.000000 0.750000 0.000000
0.000000 0.700000 0.000000
0.000000 0.650000 0.000000
0.000000 0.600000 0.000000
0.000000 0.550000 0.000000
0.000000 0.500000 0.000000
0.000000 0.450000 0.000000
0.000000 0.400000 0.000000
0.000000 0.350000 0.000000
0.000000 0.300000 0.000000
0.000000 0.250000 0.000000
0.000000 0.200000 0.000000
0.000000 0.150000 0.000000
0.000000 0.100000 0.000000
0.000000 0.050000 0.000000
0.354496 0.446366 0.000000
0.502309 0.231770 0.000000
0.363786 0.773864 0.000000
0.566801 0.775518 0.000000
0.522396 0.043152 0.000000
0.727306 0.775480 0.000000
0.311945 0.473084 0.000000
0.590635 0.731572 0.000000
0.045659 0.473765 0.000000
0.138127 0.779891 0.000000
0.295142 0.909695 0.000000
0.820464 0.831422 0.000000
0.864797 0.237468 0.000000
0.743190 0.571999 0.000000
0.778542 0.445236 0.000000
0.515462 0.774800 0.000000
0.223980 0.523964 0.000000
0.533945 0.463163 0.000000
0.956949 0.922933 0.000000
0.492608 0.428289 0.000000
0.826162 0.731797 0.000000
0.244754 0.909510 0.000000
0.955203 0.083576 0.000000
0.745345 0.673065 0.000000
0.315440 0.314600 0.000000
0.829518 0.679295 0.000000
0.685801 0.197851 0.000000
0.781472 0.496497 0.000000
0.639878 0.222577 0.000000
0.854096 0.912736 0.000000
0.955777 0.768510 0.000000
0.956358 0.488942 0.000000
0.356978 0.394599 0.000000
0.563105 0.687042 0.000000
0.957277 0.602003 0.000000
0.821397 0.125446 0.000000
0.045503 0.775465 0.000000
0.819470 0.318010 0.000000
0.788064 0.650621 0.000000
0.499445 0.282004 0.000000
0.684923 0.448918 0.000000
0.727695 0.372884 0.000000
0.469545 0.521769 0.000000
0.492084 0.819367 0.000000
0.322710 0.954760 0.000000
0.909670 0.259246 0.000000
0.363346 0.239334 0.000000
0.785243 0.547186 0.000000
0.272562 0.047739 0.000000
0.380970 0.639090 0.000000
0.172629 0.956177 0.000000
0.459644 0.683889 0.000000
0.954702 0.230222 0.000000
0.045468 0.675098 0.000000
0.870198 0.493787 0.000000
0.591005 0.294871 0.000000
0.183482 0.184646 0.000000
0.695709 0.495831 0.000000
0.546602 0.909655 0.000000
0.311909 0.419685 0.000000
0.704955 0.595560 0.000000
0.773737 0.345838 0.000000
0.372002 0.045974 0.000000
0.220822 0.675286 0.000000
0.588751 0.642360 0.000000
0.912800 0.052292 0.000000
0.413878 0.773430 0.000000
0.634063 0.421686 0.000000
0.872152 0.546947 0.000000
0.554000 0.169118 0.000000
0.224332 0.625614 0.000000
0.687368 0.146174 0.000000
0.570178 0.864820 0.000000
0.511467 0.685825 0.000000
0.355905 0.500153 0.000000
0.307655 0.685655 0.000000
0.259743 0.697435 0.000000
0.829322 0.573658 0.000000
0.593389 0.244666 0.000000
0.410898 0.220850 0.000000
0.216414 0.863883 0.000000
0.178806 0.598925 0.000000
0.491308 0.560328 0.000000
0.141017 0.100999 0.000000
0.274839 0.182371 0.000000
0.403475 0.588851 0.000000
0.270169 0.340029 0.000000
0.643964 0.080967 0.000000
0.774236 0.246337 0.000000
0.740486 0.725479 0.000000
0.909742 0.156996 0.000000
0.543663 0.084115 0.000000
0.911854 0.792283 0.000000
0.123878 0.048531 0.000000
0.416036 0.173017 0.000000
0.661191 0.597011 0.000000
0.670910 0.776702 0.000000
0.272598 0.954746 0.000000
0.297693 0.093284 0.000000
0.431561 0.637686 0.000000
0.180944 0.703048 0.000000
0.178933 0.549745 0.000000
0.445888 0.909408 0.000000
0.074819 0.040942 0.000000
0.041149 0.926622 0.000000
0.358959 0.553140 0.000000
0.779815 0.804086 0.000000
0.910425 0.361211 0.000000
0.045866 0.372294 0.000000
0.672188 0.864890 0.000000
0.395949 0.472400 0.000000
0.227923 0.260352 0.000000
0.372803 0.954689 0.000000
0.361180 0.291297 0.000000
0.422907 0.954675 0.000000
0.573442 0.954782 0.000000
0.085417 0.851747 0.000000
0.496181 0.909506 0.000000
0.046120 0.120250 0.000000
0.336033 0.729045 0.000000
0.195736 0.092039 0.000000
0.385686 0.727555 0.000000
0.586956 0.452625 0.000000
0.227688 0.150455 0.000000
0.268856 0.550492 0.000000
0.443071 0.448456 0.000000
0.313223 0.526125 0.000000
0.637595 0.272323 0.000000
0.273523 0.234302 0.000000
0.355149 0.601351 0.000000
0.597557 0.091421 0.000000
0.313592 0.367147 0.000000
0.559919 0.123477 0.000000
0.178242 0.649874 0.000000
0.868464 0.043360 0.000000
0.562823 0.597516 0.000000
0.514583 0.133645 0.000000
0.317372 0.261543 0.000000
0.822109 0.418250 0.000000
0.729558 0.223437 0.000000
0.636063 0.322266 0.000000
0.542008 0.415233 0.000000
0.864655 0.288227 0.000000
0.914585 0.684211 0.000000
0.405537 0.321105 0.000000
0.867006 0.814255 0.000000
0.136323 0.368387 0.000000
0.613300 0.686828 0.000000
0.452446 0.300422 0.000000
0.177998 0.753584 0.000000
0.180610 0.393372 0.000000
0.091497 0.344364 0.000000
0.957011 0.544506 0.000000
0.742181 0.625928 0.000000
0.224828 0.575341 0.000000
0.267245 0.864979 0.000000
0.120778 0.954325 0.000000
0.774721 0.196456 0.000000
0.692081 0.734083 0.000000
0.090267 0.801916 0.000000
0.271112 0.602439 0.000000
0.496068 0.380521 0.000000
0.682436 0.298336 0.000000
0.774854 0.395577 0.000000
0.368250 0.864352 0.000000
0.732399 0.126082 0.000000
0.537708 0.643094 0.000000
0.222883 0.046807 0.000000
0.043846 0.825522 0.000000
0.638743 0.553638 0.000000
0.868046 0.864601 0.000000
0.222667 0.954904 0.000000
0.784966 0.703299 0.000000
0.506294 0.181950 0.000000
0.180093 0.445799 0.000000
0.774427 0.046556 0.000000
0.647877 0.909788 0.000000
0.736147 0.471365 0.000000
0.698524 0.910389 0.000000
0.612163 0.597571 0.000000
0.574311 0.045582 0.000000
0.722377 0.866682 0.000000
0.953243 0.873671 0.000000
0.133226 0.828558 0.000000
0.459201 0.198029 0.000000
0.224535 0.419225 0.000000
0.822250 0.876115 0.000000
0.873407 0.600479 0.000000
0.866149 0.088480 0.000000
0.723433 0.041325 0.000000
0.135444 0.675518 0.000000
0.729567 0.422634 0.000000
0.091583 0.752039 0.000000
0.695032 0.819754 0.000000
0.398866 0.527979 0.000000
0.827704 0.521089 0.000000
0.268274 0.445864 0.000000
0.911334 0.412776 0.000000
0.227047 0.731627 0.000000
0.464529 0.774065 0.000000
0.543106 0.365423 0.000000
0.226538 0.313500 0.000000
0.045564 0.574469 0.000000
0.225289 0.366386 0.000000
0.450344 0.350417 0.000000
0.183345 0.236206 0.000000
0.285862 0.734049 0.000000
0.194948 0.910191 0.000000
0.956451 0.714596 0.000000
0.448603 0.091087 0.000000
0.515769 0.511856 0.000000
0.539866 0.553397 0.000000
0.523195 0.954730 0.000000
0.092461 0.190149 0.000000
0.091143 0.395808 0.000000
0.730579 0.174019 0.000000
0.497439 0.331732 0.000000
0.820356 0.171659 0.000000
0.601484 0.144368 0.000000
0.041469 0.070113 0.000000
0.955002 0.331736 0.000000
0.436645 0.728595 0.000000
0.728492 0.273076 0.000000
0.320351 0.635215 0.000000
0.683842 0.248215 0.000000
0.727796 0.322903 0.000000
0.773772 0.296070 0.000000
0.496080 0.091473 0.000000
0.798804 0.913369 0.000000
0.741576 0.823455 0.000000
0.237850 0.821559 0.000000
0.676272 0.045132 0.000000
0.872919 0.654581 0.000000
0.913432 0.738446 0.000000
0.268467 0.498619 0.000000
0.046048 0.321579 0.000000
0.819459 0.268359 0.000000
0.269728 0.650465 0.000000
0.681269 0.399254 0.000000
0.322933 0.047140 0.000000
0.313681 0.775832 0.000000
0.640257 0.467163 0.000000
0.092289 0.241596 0.000000
0.468939 0.864263 0.000000
0.588484 0.397605 0.000000
0.542880 0.819833 0.000000
0.244411 0.095870 0.000000
0.045725 0.725553 0.000000
0.275635 0.134840 0.000000
0.317677 0.864492 0.000000
0.145886 0.913911 0.000000
0.261838 0.774923 0.000000
0.455209 0.249779 0.000000
0.091179 0.598746 0.000000
0.644624 0.820482 0.000000
0.642994 0.173185 0.000000
0.135526 0.472749 0.000000
0.871168 0.708584 0.000000
0.403294 0.371579 0.000000
0.821429 0.081417 0.000000
0.906821 0.903586 0.000000
0.955749 0.435347 0.000000
0.641994 0.731886 0.000000
0.345394 0.909497 0.000000
0.866146 0.390098 0.000000
0.473023 0.954686 0.000000
0.692611 0.642939 0.000000
0.395472 0.088883 0.000000
0.214215 0.779826 0.000000
0.734332 0.080552 0.000000
0.778906 0.755901 0.000000
0.135160 0.726946 0.000000
0.909752 0.208343 0.000000
0.340663 0.819690 0.000000
0.487628 0.729532 0.000000
0.824763 0.781844 0.000000
0.824672 0.469458 0.000000
0.271813 0.287180 0.000000
0.644222 0.124115 0.000000
0.954638 0.180191 0.000000
0.045839 0.524360 0.000000
0.323138 0.150535 0.000000
0.690083 0.094671 0.000000
0.878481 0.953955 0.000000
0.737786 0.523528 0.000000
0.345573 0.096192 0.000000
0.869677 0.761424 0.000000
[...]
POINT_DATA 480
SCALARS P float 1
LOOKUP_TABLE default
415628954.537375
2518015881.687348
6836524669.853592
3155022982.076665
568094613.657037
614138556.474694
693813617.811758
765469784.881123
847268732.428838
930288996.280033
1018230551.395903
1109952878.043363
1205358879.846380
1305090255.208126
1408089334.951978
1516409970.044077
1626757054.240284
1742756228.016745
1861748887.881585
1985303029.414855
2111800911.023184
2243793351.311028
2377782668.810651
2692609561.025687
2872066412.185333
3057879147.052582
3249282846.134022
3446668927.730650
3649813996.788668
3858957500.723685
4073847469.890560
4294701016.003273
4521381541.869091
4753875745.472334
4992172655.006633
5235512903.471310
5485771348.589267
5741360530.557839
6002969753.822740
6270975784.182353
6540113536.611393
6864475577.220508
6909643994.543403
6635933048.912530
6412379950.529587
6188563767.696282
5969697015.972581
5754655693.181985
5543039069.443831
5335660932.906444
5132326226.872766
4932578393.872322
4737379775.097046
4545289740.277902
4358374679.124166
4173406220.316891
3995916894.362843
3815934661.377695
3651250908.892270
3471970419.071564
3320506384.442946
2964346316.650174
2774919318.649692
2604180495.384994
2429949077.497718
2264976963.378820
2105194982.784716
1950690632.249918
1803590371.155678
1659337785.868707
1525069873.561673
1393145164.775881
1269165457.523690
1150133286.201006
1037401215.907099
930119087.386407
829278555.759411
733580948.550359
641099029.481668
571956788.055486
2232879013.061872
1943907334.972860
3445389269.822973
4155219630.786214
1461552962.812772
4756948582.837810
2206103488.620362
4048660520.397240
1566550643.895715
2764497676.768767
3768780430.437958
5401921035.710936
2966995052.827393
3902553987.986728
3497166499.893322
3968137004.619746
2138343000.789727
2795401394.249518
6469132112.720672
2552233805.761686
4936314479.988243
3596130389.495428
2678550090.957428
4353683279.195686
1735565887.950506
4700544427.241100
2312588428.813058
3717110935.505019
2269790500.491991
5960930624.143701
5648013798.656634
4305801324.992529
2075439911.455996
3762018140.466527
4830638563.588342
2443743193.523232
2486521364.329962
3130000706.926491
4411117500.275750
2090516273.794914
3207033404.818268
3051258387.101384
2815550912.635941
4077236618.788281
4063217153.554826
3190167570.709476
1635430388.845588
3944536862.631823
983467586.507279
2978246991.228070
3547574010.759342
3401131504.348568
3220053819.213133
2156978631.019864
4015510011.479673
2375066948.442357
1122353515.350186
3426207302.671744
4687027177.541888
2038171503.065071
3868993767.021345
3092441102.962638
1162571540.018631
2633072652.570107
3663884139.198028
2451475383.008563
3610814746.035182
2945381174.840210
4256045947.677769
1883925447.401810
2471272182.852199
2150492332.135131
4571413866.021005
3580998803.708154
2413587414.515326
2927451617.482003
2826486254.411198
4218260749.321245
2217420880.151558
1693120592.019623
3321939855.050752
2259144876.991263
3023813236.602311
871444475.851191
1296538193.979032
2861394814.784506
1701949168.562244
1842708442.831387
2727899567.893529
4574405421.751906
2808632956.948431
1617370673.754297
5585378990.229609
742126730.785529
1572895404.898019
3723315853.690120
4546581528.019728
3884866782.074060
1129352373.182714
3130719186.306012
2614561184.459597
2099220805.523345
4306152941.271404
651540063.230834
3015252984.784437
2603113663.833726
5101348736.245947
3597791349.390254
1305451116.225024
4967644572.040985
2431304237.089062
1395375214.980649
4243952078.646408
1776717986.076555
4429504663.164985
5010953735.649530
2860702561.936440
4494045137.903226
760690715.473092
3179269713.547109
941152242.955368
3332656029.929583
2916210027.577853
1129099889.262034
2342131717.303897
2481554665.710135
2383175330.358180
2427960862.659959
1424579983.259116
2763464166.379988
1762289226.086747
1883663841.969369
1765423963.001391
2423283716.122389
2300166005.850377
3395344939.015281
1688513840.395389
1592484747.694280
3533251401.128042
2519302561.015493
2594364263.539125
2648538144.417281
3158137250.746717
5058304381.454097
1972766246.256811
5508736176.511075
1481431927.501625
3936212653.330864
2027491962.313293
2784318875.594728
1643920366.717308
1319221049.182642
4560640487.972408
4132110456.192585
2304973346.184223
3493189671.877803
3371964991.320727
2554373626.091841
4431270658.343223
2697404935.422690
2524363614.403404
2399852703.227396
2644283788.470389
3287604643.151128
3834200865.697125
2204655349.228621
3495232988.062612
897077004.863182
2653823500.946659
3469785010.761657
5772368662.950452
3714012355.909512
4641246423.629411
1806443553.041334
1790788742.595251
2063430697.116050
5085752085.974420
3461859630.408439
5293745102.522061
3559410349.975799
1581564599.408622
5177476565.305878
6190606504.102668
2925906985.313743
1741031487.392558
1821475032.264121
5637938455.973908
4502500935.410433
2442808321.959285
1919757324.324461
2395460133.410535
3247655507.171386
2524881492.832274
4840490887.026744
2630593759.891750
3982670276.377607
2008129899.977100
3815112108.759488
2852530637.818648
3786737411.829125
2479353919.285499
1531004445.863804
1850124474.626219
1672368613.979665
2178456808.299876
1243170272.875727
3040652886.254910
3432449538.458750
5377122791.738801
1427479773.037845
2918611517.457541
3149274628.244360
4812823570.102275
966012538.090597
1449108054.616620
2355678950.679094
2243158376.447754
2598900897.997703
1927052943.009795
663343862.110011
3626093188.467883
3504497704.016172
2688965471.416552
2781246695.764835
2475335321.155826
2866059958.739907
2906527277.963783
1530956855.575900
5727385854.496036
5042448910.847419
3224072887.323434
1816623191.270780
4752122689.791986
5320642230.306519
2173261332.401253
1184053197.055710
2943347433.380843
2686580558.013840
3006629545.414446
1073642532.767746
3289550823.940396
3135675996.629308
1078070079.942692
4192275749.923798
2721560186.333938
4263977898.780119
1038118732.166603
2319530540.136914
1184557409.155936
3660463111.330595
3288670108.117019
3121279349.827945
1881704541.587368
2027223408.912431
4648744548.785449
2120086783.040432
1765659933.983859
5002749635.423536
2122861374.459296
2297405426.420490
6145775446.007325
4067023352.016249
4235892099.384869
3943571282.592940
3565910993.607194
4618915525.929685
4028334544.395753
1311271234.661444
2991749142.574402
2066172918.477165
4865599835.706163
2569199506.491129
2997288723.295108
3553290275.481738
3679995636.265022
5173950970.301881
3752901185.744320
1559997636.214937
1972126217.212914
3028997963.623548
1706919853.380212
1316460110.237470
1997123531.383119
6293692755.907565
3680023379.187405
1229474055.254303
5255218561.574577
1923695669.972071
4454643194.653474
5420513444.048811
4379414858.750050
6523573496.205838
3086577590.776906
3034934100.089379
3232967137.178639
1466061442.021497
4539765623.975445
1103392284.593465
2690709434.588589
3358073124.671241
1999652740.682033
814745061.853246
1263663058.512468
3841420547.996104
3246289965.112475
3721013645.588197
2159463304.484879
2315193216.611549
4122687512.884352
4798623628.664691
4286296862.869455
3325787190.472902
2559081727.938405
3059008664.806226
2834820436.610753
1195589839.517962
4768023684.787677
3060749760.147558
5628795319.544873
2821202975.881687
2768119274.078194
1388656782.859858
3389862807.156909
1682486365.718885
2607564733.535665
5366180006.300018
1728631769.029713
5848913780.838834
759323937.917447
2350597989.259213
1585536840.383405
4173015629.890715
1007594448.114223
1620430977.560666
2782817987.371964
3784905493.749910
2170534283.697808
4884227920.611959
1607904140.518983
3896016798.467613
1976632628.182394
2624213333.876385
3862901800.384509
2067984825.556085
2183231633.835001
4346839951.932348
3383142819.000300
3071893278.135170
3312679145.447063
2624036429.894273
5105671528.559270
1364377962.386070
3418442270.248355
2542812340.131611
1223714131.087479
1433307671.908334
3840717323.240592
2331448614.827563
1828342942.064844
3297494189.055063
1370037976.384483
1502671672.516552
4109652120.082941
3358395186.021185
4457903444.844795
5920059095.956683
2230028667.476393
5499502294.710979
4044321711.469385
959554788.966146
1349417108.209743
1877879318.537913
2014678507.636047
3181275836.625031
1503465440.600432
2766439307.274934
2529612983.001431
3175073599.617296
856373162.045313
2276272601.148689
4278594063.470117
6070720466.515980
4010356933.114195
1944301922.233007
1921856519.808049
2846936169.643369
3226312877.926671
1453405388.808060
5859903203.072200
3025055786.404465
2388686891.572273
1850358067.530082
5213138676.877940
2218855949.559736
985748521.352074
3627907778.536518
1068681825.530745
1262004980.381568
861221873.660075
2848193122.406426
