# vtk DataFile Version 2.0
patchtest_tri6_mix
ASCII
DATASET POLYDATA
POINTS 300 float
0.000000 0.000000 0.000000
1.000000 0.000000 0.000000
1.000000 1.000000 0.000000
0.000000 1.000000 0.000000
0.062500 0.000000 0.000000
0.125000 0.000000 0.000000
0.187500 0.000000 0.000000
0.250000 0.000000 0.000000
0.312500 0.000000 0.000000
0.375000 0.000000 0.000000
0.437500 0.000000 0.000000
0.500000 0.000000 0.000000
0.562500 0.000000 0.000000
0.625000 0.000000 0.000000
0.687500 0.000000 0.000000
0.750000 0.000000 0.000000
0.812500 0.000000 0.000000
0.875000 0.000000 0.000000
0.937500 0.000000 0.000000
1.000000 0.062500 0.000000
1.000000 0.125000 0.000000
1.000000 0.187500 0.000000
1.000000 0.250000 0.000000
1.000000 0.312500 0.000000
1.000000 0.375000 0.000000
1.000000 0.437500 0.000000
1.000000 0.500000 0.000000
1.000000 0.562500 0.000000
1.000000 0.625000 0.000000
1.000000 0.687500 0.000000
1.000000 0.750000 0.000000
1.000000 0.812500 0.000000
1.000000 0.875000 0.000000
1.000000 0.937500 0.000000
0.937500 1.000000 0.000000
0.875000 1.000000 0.000000
0.812500 1.000000 0.000000
0.750000 1.000000 0.000000
0.687500 1.000000 0.000000
0.625000 1.000000 0.000000
0.562500 1.000000 0.000000
0.500000 1.000000 0.000000
0.437500 1.000000 0.000000
0.375000 1.000000 0.000000
0.312500 1.000000 0.000000
0.250000 1.000000 0.000000
0.187500 1.000000 0.000000
0.125000 1.000000 0.000000
0.062500 1.000000 0.000000
0.000000 0.937500 0.000000
0.000000 0.875000 0.000000
0.000000 0.812500 0.000000
0.000000 0.750000 0.000000
0.000000 0.687500 0.000000
0.000000 0.625000 0.000000
0.000000 0.562500 0.000000
0.000000 0.500000 0.000000
0.000000 0.437500 0.000000
0.000000 0.375000 0.000000
0.000000 0.312500 0.000000
0.000000 0.250000 0.000000
0.000000 0.187500 0.000000
0.000000 0.125000 0.000000
0.000000 0.062500 0.000000
0.559057 0.708424 0.000000
0.940748 0.533449 0.000000
0.495920 0.356271 0.000000
0.659632 0.414325 0.000000
0.118364 0.175716 0.000000
0.626860 0.709108 0.000000
0.173881 0.411620 0.000000
0.118297 0.763926 0.000000
0.942833 0.197483 0.000000
0.826803 0.941596 0.000000
0.527128 0.532875 0.000000
0.659179 0.651465 0.000000
0.493074 0.591385 0.000000
0.695700 0.824326 0.000000
0.291157 0.822619 0.000000
0.942724 0.130507 0.000000
0.112892 0.589145 0.000000
0.719915 0.413519 0.000000
0.296612 0.473211 0.000000
0.882979 0.231572 0.000000
0.881302 0.430995 0.000000
0.878314 0.768838 0.000000
0.793672 0.771427 0.000000
0.659793 0.768977 0.000000
0.061519 0.884131 0.000000
0.711049 0.235736 0.000000
0.059274 0.174145 0.000000
0.058334 0.587851 0.000000
0.297533 0.058862 0.000000
0.058215 0.647946 0.000000
0.687080 0.057306 0.000000
0.425091 0.941660 0.000000
0.627725 0.942480 0.000000
0.403433 0.414999 0.000000
0.714727 0.116635 0.000000
0.878067 0.052843 0.000000
0.626871 0.826359 0.000000
0.941069 0.063701 0.000000
0.939071 0.736247 0.000000
0.177717 0.176347 0.000000
0.319552 0.764625 0.000000
0.119112 0.351960 0.000000
0.388127 0.765589 0.000000
0.826901 0.261120 0.000000
0.124955 0.529173 0.000000
0.762532 0.940808 0.000000
0.525587 0.649791 0.000000
0.176609 0.058630 0.000000
0.116329 0.469979 0.000000
0.360937 0.473740 0.000000
0.288158 0.117994 0.000000
0.323480 0.532398 0.000000
0.492026 0.942182 0.000000
0.059349 0.291917 0.000000
0.300556 0.354255 0.000000
0.729792 0.765425 0.000000
0.457563 0.649685 0.000000
0.692031 0.176342 0.000000
0.343710 0.414277 0.000000
0.593986 0.533004 0.000000
0.469393 0.296587 0.000000
0.237658 0.176894 0.000000
0.463669 0.118479 0.000000
0.117555 0.293195 0.000000
0.255088 0.881745 0.000000
0.697169 0.353289 0.000000
0.559677 0.942647 0.000000
0.890040 0.940007 0.000000
0.174097 0.117426 0.000000
0.940162 0.600554 0.000000
0.056414 0.942225 0.000000
0.238872 0.353506 0.000000
0.231363 0.117746 0.000000
0.256037 0.531358 0.000000
0.459539 0.532893 0.000000
0.530458 0.415221 0.000000
0.774833 0.118028 0.000000
0.800558 0.880723 0.000000
0.408810 0.296194 0.000000
0.291995 0.236110 0.000000
0.821502 0.191894 0.000000
0.769094 0.237516 0.000000
0.183340 0.648305 0.000000
0.820079 0.666786 0.000000
0.117337 0.058302 0.000000
0.768177 0.299758 0.000000
0.720904 0.661079 0.000000
0.621053 0.057731 0.000000
0.403391 0.118521 0.000000
0.765457 0.706835 0.000000
0.817663 0.061986 0.000000
0.422615 0.707794 0.000000
0.233621 0.294558 0.000000
0.345112 0.118289 0.000000
0.826275 0.465127 0.000000
0.762007 0.826828 0.000000
0.630971 0.591680 0.000000
0.058317 0.057395 0.000000
0.291406 0.295087 0.000000
0.423827 0.824298 0.000000
0.059185 0.232815 0.000000
0.700459 0.596977 0.000000
0.183144 0.764099 0.000000
0.941758 0.264322 0.000000
0.389211 0.649571 0.000000
0.298635 0.177440 0.000000
0.752781 0.057346 0.000000
0.356793 0.823623 0.000000
0.291439 0.590772 0.000000
0.456726 0.766129 0.000000
0.592519 0.295707 0.000000
0.825190 0.599160 0.000000
0.892971 0.830161 0.000000
0.554310 0.058270 0.000000
0.116327 0.116941 0.000000
0.320179 0.649191 0.000000
0.057157 0.825582 0.000000
0.940269 0.465593 0.000000
0.695339 0.942322 0.000000
0.174360 0.470677 0.000000
0.651181 0.236187 0.000000
0.693106 0.713760 0.000000
0.227857 0.822669 0.000000
0.940744 0.398866 0.000000
0.882309 0.364660 0.000000
0.883993 0.107195 0.000000
0.530742 0.296234 0.000000
0.429461 0.355752 0.000000
0.353797 0.707159 0.000000
0.425095 0.591208 0.000000
0.630900 0.355298 0.000000
0.715826 0.535553 0.000000
0.389879 0.882728 0.000000
0.322150 0.881905 0.000000
0.175690 0.293892 0.000000
0.236546 0.058808 0.000000
0.057339 0.766057 0.000000
0.457814 0.883136 0.000000
0.168097 0.589168 0.000000
0.234044 0.235543 0.000000
0.349858 0.236885 0.000000
0.881252 0.634529 0.000000
0.882508 0.499532 0.000000
0.881775 0.566029 0.000000
0.558225 0.177520 0.000000
0.230412 0.412695 0.000000
0.729903 0.883782 0.000000
0.764474 0.495240 0.000000
0.491435 0.824886 0.000000
0.494889 0.474244 0.000000
0.408150 0.237628 0.000000
0.357714 0.591122 0.000000
0.559121 0.825574 0.000000
0.593488 0.884355 0.000000
0.117576 0.234352 0.000000
0.528349 0.237639 0.000000
0.167656 0.823024 0.000000
0.112009 0.823241 0.000000
0.250846 0.763913 0.000000
0.766292 0.630389 0.000000
0.525618 0.118376 0.000000
0.762605 0.362151 0.000000
0.884019 0.699199 0.000000
0.123981 0.882657 0.000000
0.178575 0.352688 0.000000
0.824679 0.328987 0.000000
0.884023 0.169839 0.000000
0.661948 0.883639 0.000000
0.142629 0.706208 0.000000
0.590063 0.237042 0.000000
0.213564 0.706294 0.000000
0.593074 0.649825 0.000000
0.295176 0.940764 0.000000
0.364197 0.354979 0.000000
0.423609 0.058801 0.000000
0.771175 0.433634 0.000000
0.172546 0.941087 0.000000
0.945353 0.937068 0.000000
0.349542 0.295635 0.000000
0.058161 0.115685 0.000000
0.116701 0.410815 0.000000
0.829947 0.729922 0.000000
0.361137 0.178007 0.000000
0.175893 0.234984 0.000000
0.284309 0.706655 0.000000
0.822017 0.395213 0.000000
0.060145 0.351123 0.000000
0.188702 0.882081 0.000000
0.359192 0.941226 0.000000
0.700077 0.472830 0.000000
0.831261 0.820120 0.000000
0.059291 0.410465 0.000000
0.491005 0.708079 0.000000
0.524819 0.766674 0.000000
0.467589 0.237962 0.000000
0.251241 0.649089 0.000000
0.114137 0.941520 0.000000
0.286558 0.413774 0.000000
0.757469 0.175902 0.000000
0.118517 0.648751 0.000000
0.652853 0.294939 0.000000
0.941569 0.331973 0.000000
0.766398 0.567893 0.000000
0.658613 0.533874 0.000000
0.062714 0.528549 0.000000
0.189573 0.530115 0.000000
0.491044 0.178173 0.000000
0.391409 0.532552 0.000000
0.465619 0.415346 0.000000
0.563429 0.355595 0.000000
0.941782 0.667553 0.000000
0.595723 0.415228 0.000000
0.652737 0.117357 0.000000
0.425357 0.178317 0.000000
0.427407 0.474353 0.000000
0.712118 0.294830 0.000000
0.563147 0.474335 0.000000
0.058916 0.469758 0.000000
0.632277 0.474418 0.000000
0.944832 0.801612 0.000000
0.592507 0.767316 0.000000
0.359867 0.058892 0.000000
0.228155 0.590087 0.000000
0.828916 0.128068 0.000000
0.867339 0.884599 0.000000
0.625495 0.176835 0.000000
0.821475 0.531233 0.000000
0.589303 0.117650 0.000000
0.234289 0.471938 0.000000
0.561451 0.591473 0.000000
0.070722 0.707286 0.000000
0.938777 0.874496 0.000000
0.883739 0.298080 0.000000
0.525588 0.883823 0.000000
0.488534 0.058553 0.000000
0.232838 0.940777 0.000000
POLYGONS 534 2136
3 63 0 161
3 243 161 148
3 4 161 0
3 63 161 243
3 61 62 90
3 90 164 61
3 178 90 243
3 68 164 90
3 90 62 243
3 62 63 243
3 61 164 60
3 4 148 161
3 148 5 111
3 5 148 4
3 136 111 199
3 6 111 5
3 148 111 132
3 178 68 90
3 68 178 132
3 132 136 103
3 132 178 148
3 247 103 203
3 132 103 68
3 111 136 132
3 164 68 218
3 111 6 199
3 148 178 243
3 247 68 103
3 59 60 117
3 117 250 59
3 244 255 250
3 164 117 60
3 59 250 58
3 57 58 255
3 281 255 112
3 255 281 57
3 244 112 255
3 112 268 281
3 58 250 255
3 57 281 56
3 250 117 127
3 127 218 247
3 105 250 127
3 127 198 105
3 198 127 247
3 198 247 203
3 105 198 228
3 218 68 247
3 105 244 250
3 70 183 112
3 244 105 70
3 70 209 183
3 209 70 228
3 135 209 228
3 183 209 292
3 105 228 70
3 70 112 244
3 228 198 156
3 127 117 218
3 164 218 117
3 183 108 112
3 136 125 103
3 199 7 92
3 7 199 6
3 157 92 285
3 8 92 7
3 199 92 114
3 143 203 125
3 203 103 125
3 114 157 169
3 157 114 92
3 169 157 246
3 114 169 125
3 136 114 125
3 169 143 125
3 92 8 285
3 136 199 114
3 285 9 238
3 9 285 8
3 238 10 298
3 10 238 9
3 298 10 11
3 238 298 126
3 285 238 152
3 246 152 277
3 246 157 152
3 277 126 270
3 126 277 152
3 224 270 126
3 214 246 277
3 152 238 126
3 204 169 246
3 126 298 224
3 152 157 285
3 258 277 270
3 261 209 135
3 135 156 162
3 242 118 162
3 143 162 156
3 156 203 143
3 135 162 118
3 292 261 82
3 209 261 292
3 261 122 82
3 122 261 118
3 237 122 118
3 113 82 122
3 135 118 261
3 292 269 183
3 162 143 204
3 135 228 156
3 242 204 214
3 204 242 162
3 214 258 142
3 214 204 246
3 142 258 124
3 214 142 242
3 143 169 204
3 242 142 237
3 237 97 122
3 97 237 191
3 272 191 66
3 191 237 142
3 124 66 191
3 191 272 97
3 142 124 191
3 113 122 97
3 124 258 219
3 242 237 118
3 258 214 277
3 278 97 272
3 213 278 272
3 203 156 198
3 137 292 82
3 55 56 268
3 80 93 91
3 268 91 55
3 281 268 56
3 55 91 54
3 53 54 93
3 53 294 52
3 294 53 93
3 263 294 93
3 200 52 294
3 54 91 93
3 91 268 80
3 80 108 202
3 108 80 268
3 146 202 286
3 269 202 108
3 108 183 269
3 80 202 263
3 294 232 71
3 294 263 232
3 232 146 234
3 146 232 263
3 259 234 146
3 71 232 166
3 263 202 146
3 166 232 234
3 286 202 269
3 263 93 80
3 112 108 268
3 200 294 71
3 50 51 180
3 88 180 221
3 200 180 51
3 51 52 200
3 50 180 88
3 3 49 134
3 48 134 260
3 88 134 49
3 260 134 88
3 134 48 3
3 49 50 88
3 180 200 221
3 227 221 220
3 221 71 220
3 186 251 220
3 222 186 166
3 299 240 251
3 186 220 166
3 200 71 221
3 227 220 251
3 260 227 240
3 260 88 227
3 47 240 46
3 240 47 260
3 299 46 240
3 227 251 240
3 260 47 48
3 251 186 128
3 227 88 221
3 166 220 71
3 166 234 222
3 286 137 172
3 137 286 269
3 179 172 215
3 115 172 137
3 82 115 137
3 286 172 259
3 234 248 222
3 234 259 248
3 248 179 192
3 179 248 259
3 168 192 179
3 222 248 104
3 259 172 179
3 192 104 248
3 215 172 115
3 186 222 78
3 115 271 215
3 271 115 113
3 271 278 138
3 278 271 113
3 213 138 278
3 215 271 193
3 113 97 278
3 193 271 138
3 168 155 192
3 155 168 120
3 193 76 120
3 256 120 110
3 120 256 155
3 193 120 168
3 168 215 193
3 106 192 155
3 138 76 193
3 215 168 179
3 269 292 137
3 173 155 256
3 197 128 78
3 186 78 128
3 104 171 78
3 171 104 106
3 222 104 78
3 197 78 171
3 299 45 46
3 45 299 236
3 44 236 252
3 236 299 128
3 197 252 236
3 236 44 45
3 128 197 236
3 197 171 196
3 299 251 128
3 196 252 197
3 171 163 196
3 163 173 212
3 173 163 106
3 257 212 173
3 196 163 201
3 104 192 106
3 201 163 212
3 252 43 44
3 43 252 95
3 42 95 116
3 95 252 196
3 201 116 95
3 95 42 43
3 196 201 95
3 201 212 297
3 171 106 163
3 155 173 106
3 257 173 256
3 146 286 259
3 82 113 115
3 258 270 219
3 177 11 12
3 276 291 151
3 13 151 12
3 177 12 151
3 224 177 291
3 224 298 177
3 208 291 289
3 291 208 224
3 291 177 151
3 233 208 289
3 291 276 289
3 208 219 270
3 151 13 94
3 270 224 208
3 94 14 15
3 94 276 151
3 15 170 94
3 170 15 16
3 94 170 98
3 289 121 184
3 121 276 98
3 121 262 89
3 262 121 98
3 140 262 98
3 279 89 145
3 276 94 98
3 121 289 276
3 98 170 140
3 94 13 14
3 89 184 121
3 190 66 124
3 190 219 233
3 233 174 190
3 174 233 184
3 208 233 219
3 190 174 273
3 272 139 213
3 74 138 213
3 280 139 275
3 273 139 66
3 273 275 139
3 139 280 213
3 66 190 273
3 74 213 280
3 273 174 194
3 124 219 190
3 174 264 194
3 194 275 273
3 264 279 129
3 264 184 89
3 81 129 225
3 264 129 194
3 89 279 264
3 194 129 67
3 275 282 280
3 282 275 67
3 67 81 253
3 81 67 129
3 253 81 239
3 67 253 282
3 275 194 67
3 267 282 253
3 225 129 279
3 174 184 264
3 289 184 233
3 123 280 282
3 145 89 262
3 272 66 139
3 154 140 170
3 154 16 99
3 17 99 16
3 99 17 18
3 287 154 189
3 262 144 145
3 149 279 145
3 83 144 230
3 144 262 287
3 287 230 144
3 145 144 107
3 140 154 287
3 107 144 83
3 189 154 99
3 154 170 16
3 99 101 189
3 101 99 18
3 101 1 19
3 1 101 18
3 189 101 79
3 20 101 19
3 230 79 72
3 79 230 189
3 79 21 72
3 21 79 20
3 83 72 167
3 79 101 20
3 230 72 83
3 189 230 287
3 22 72 21
3 225 149 229
3 225 279 149
3 188 249 229
3 107 229 149
3 149 145 107
3 225 229 249
3 211 239 158
3 211 253 239
3 249 84 158
3 188 84 249
3 206 158 84
3 249 158 239
3 239 225 249
3 290 211 158
3 229 107 296
3 239 81 225
3 296 265 188
3 265 296 167
3 167 22 23
3 296 83 167
3 167 23 265
3 107 83 296
3 265 23 24
3 187 84 188
3 84 187 181
3 187 24 25
3 187 188 265
3 187 25 181
3 265 24 187
3 181 25 26
3 296 188 229
3 72 22 167
3 181 206 84
3 140 287 262
3 253 211 195
3 76 74 293
3 76 138 74
3 235 293 160
3 123 293 74
3 280 123 74
3 76 293 110
3 256 64 257
3 256 110 64
3 284 64 69
3 235 64 110
3 235 69 64
3 64 284 257
3 110 293 235
3 257 284 216
3 160 293 123
3 212 257 216
3 160 267 165
3 267 160 123
3 150 165 223
3 195 165 267
3 253 195 267
3 160 165 75
3 69 75 185
3 69 235 75
3 119 185 153
3 150 185 75
3 86 159 119
3 69 185 87
3 75 165 150
3 69 87 284
3 150 153 185
3 75 235 160
3 282 267 123
3 87 185 119
3 297 216 217
3 297 212 216
3 96 130 217
3 100 217 216
3 284 100 216
3 297 217 130
3 116 41 42
3 41 116 130
3 130 39 40
3 96 39 130
3 130 40 41
3 116 297 130
3 217 100 231
3 116 201 297
3 231 96 217
3 100 77 231
3 77 159 210
3 77 87 119
3 109 210 141
3 77 210 231
3 119 159 77
3 231 210 182
3 96 38 39
3 38 96 182
3 182 109 37
3 182 96 231
3 37 109 36
3 182 37 38
3 210 109 182
3 210 159 141
3 100 87 77
3 284 87 100
3 266 165 195
3 120 76 110
3 266 290 175
3 266 195 211
3 175 207 205
3 207 175 290
3 290 206 207
3 266 175 223
3 153 223 147
3 153 150 223
3 245 147 226
3 147 223 175
3 226 147 205
3 147 245 153
3 175 205 147
3 153 245 86
3 207 133 205
3 223 165 266
3 274 205 133
3 207 65 133
3 65 26 27
3 65 206 181
3 65 27 133
3 181 26 65
3 133 27 28
3 245 226 85
3 102 226 274
3 274 28 29
3 226 205 274
3 274 29 102
3 133 28 274
3 102 29 30
3 207 206 65
3 211 290 266
3 85 226 102
3 159 86 254
3 159 254 141
3 141 254 288
3 85 254 86
3 245 85 86
3 176 288 254
3 36 73 35
3 36 109 73
3 131 35 73
3 295 131 288
3 35 131 34
3 131 73 288
3 73 141 288
3 176 254 85
3 109 141 73
3 295 241 131
3 295 176 283
3 283 30 31
3 283 176 85
3 283 31 295
3 102 283 85
3 295 31 32
3 34 241 2
3 34 131 241
3 32 33 241
3 33 2 241
3 241 295 32
3 288 176 295
3 30 283 102
3 119 153 86
3 158 206 290
3 11 177 298
POINT_DATA 300
SCALARS P float 1
LOOKUP_TABLE default
487089034.507853
2516997087.667524
7107032340.766970
3157096371.777946
567785043.580223
654477938.216065
747400062.572584
846584059.869716
951787985.563501
1063189526.688385
1180906580.393667
1304781176.227482
1434496565.298971
1570860855.373320
1713141355.832849
1861692225.940400
2015972958.791732
2177345429.495134
2343731619.432063
2735499009.610637
2962930086.644037
3199322538.277957
3445334563.565031
3700060794.712028
3963904350.382777
4237215831.807365
4519689752.524210
4810751324.422614
5111594763.467102
5421404479.905609
5740036893.975824
6068249751.450865
6405514515.340890
6751458610.727050
6813725020.537536
6526896140.384992
6246025389.519880
5971722574.341583
5702816233.592052
5440809566.546160
5184800826.005322
4934464632.674301
4690937094.732368
4453270807.370162
4221622091.615452
3996439186.682246
3777374899.786171
3564328677.614563
3357759403.537561
2921814337.069061
2694961468.569088
2478584703.608312
2269894800.582333
2070885892.427478
1881832220.619939
1700764322.288802
1529544486.515243
1367225455.060496
1213938537.909195
1069995927.133488
935184679.544648
809381279.277187
692810953.858308
585379465.654770
3837246751.387990
4449171346.236771
2318121710.496589
2995635335.147671
984297917.723168
4079989689.775428
1679425756.876818
2646885222.569161
3057416259.603808
5996721641.039391
3030860517.775706
3945756886.488652
3146495455.194189
4864430537.843384
3400405759.620184
2809705038.313148
2054609096.232102
3181212294.071844
2165525947.263024
3000473157.638785
3786402177.086808
5326368672.044897
4997662969.517130
4468433865.361371
2911349720.560787
2508427952.477706
879662457.477395
1913811409.613603
1051560763.604875
2097305807.533206
1877073234.231354
4375171650.382575
5165340095.946937
2261251862.592772
2127657070.855126
2356338148.441477
4607699638.019410
2568679053.080819
5413898025.377023
1093225669.604070
3263891785.033169
1399096961.991951
3491737658.656794
2938283925.497913
1902320767.738566
5715856348.814377
3481246600.434936
842315297.021761
1710289855.261574
2338721480.590141
1168413320.019775
2431508161.615159
4630109233.164375
1134010798.405712
1813420998.493050
4718575297.865919
3258689082.538246
2258402133.060170
2102005327.212951
3241962755.292598
2058031858.353127
1208794170.760864
1531367081.304701
1250094472.318451
3518592718.502631
2883955460.319383
4894805026.548453
6266451217.482471
958233289.451824
4757800670.729221
3113430169.214372
1666659965.882257
1061244128.982846
2244595026.193861
2825252045.050116
2614361295.431017
2291066499.186834
5568112220.934435
1905231718.463326
1468059756.440552
2672164908.198934
2680947088.052504
2433125175.151480
4605064503.836497
747760150.708802
2902517979.399686
4209487647.138939
1720874260.251747
1401702966.033901
4582228376.517576
2223598554.216042
3374193532.236110
1495150986.020978
1281120573.627660
3739483805.250807
5140396836.624006
3597746642.494072
658164310.528651
1624935822.251658
3856462443.229837
1002131598.641691
3858004078.372696
2838231474.056645
3311361007.825652
3042565877.886455
1332272466.546606
2040492034.836035
3623218127.208536
2540507243.606676
3725762857.154033
2381241647.225342
4316228297.451699
5699531908.318585
1570170712.730828
859351021.636616
2830793334.186172
2686718761.147135
4143759656.087425
5441434748.555564
1849889698.938143
2344260930.744393
4342397777.886567
3196207422.878998
3857326999.655644
3516160099.081020
2556715601.183411
2216417216.533182
2140076521.900959
3150612841.996869
2935026938.470889
2694604612.345168
3654585443.375544
3986930837.735422
3746579226.153612
1370111178.464344
943294718.859884
2480470542.505986
4233606158.123705
2197724974.540614
1344449101.988463
1597482202.161037
4689540719.863052
4084103201.916012
4376660141.192370
1918557901.905705
1815487681.185744
5290912842.422023
3653248837.415894
4098785604.209507
2719123426.333353
1733336906.641152
2732971090.160152
4349179978.749807
4750383209.111505
1112278397.251451
2026156554.759770
3009081025.525397
2840599590.742143
3044086371.930802
4239094146.292274
1670334095.630494
3118694528.215558
5008191072.923542
3098215440.437445
1528948463.189606
3187741684.264683
2777133827.441348
5015855430.546265
2515881528.273187
2183448088.480994
2720511676.609520
3708854552.492836
3901537036.408439
1971286031.516343
1293907537.024704
3425400551.742169
3484032127.462175
6499280869.560269
1760960609.416240
763763660.139328
1548028634.699045
4941775602.359150
1465117762.326192
1225848089.958012
2933256718.977602
3439297624.475508
1275751293.982149
3301902776.625676
4131659948.914856
3348214404.419871
5389332088.122915
1422764044.985869
3602364687.328125
3965479963.720850
1876305138.080044
2627760679.143993
3294548066.323042
1955759386.428786
2435153761.262721
2257946236.269945
2546914432.128219
3581826515.698858
3965844287.747662
3455575469.325538
1750993940.532614
2067214428.441008
1758530091.339979
2624130032.781828
2431734502.052461
2502231372.585650
5085102490.026288
2805503522.463840
1972152351.065570
1607474455.747931
2525143227.049708
2717674014.051149
2923211078.062555
1578672424.324814
3137573390.545106
5772043072.494981
4211614449.514477
1168395253.266937
2361970105.557099
2472620684.321929
5872157938.645039
2085695259.826623
4003431313.098472
1817782885.288744
2001478308.928919
3366111571.261923
2320846095.906606
6129426902.247211
3256590443.690933
4488366522.026866
1427835242.425504
3685682870.582305
