# vtk DataFile Version 2.0
patchtest_tri3_mix
ASCII
DATASET POLYDATA
POINTS 1058 float
0.000000 -6.000000 0.000000
48.000000 -6.000000 0.000000
0.750000 -6.000000 0.000000
1.500000 -6.000000 0.000000
2.250000 -6.000000 0.000000
3.000000 -6.000000 0.000000
3.750000 -6.000000 0.000000
4.500000 -6.000000 0.000000
5.250000 -6.000000 0.000000
6.000000 -6.000000 0.000000
6.750000 -6.000000 0.000000
7.500000 -6.000000 0.000000
8.250000 -6.000000 0.000000
9.000000 -6.000000 0.000000
9.750000 -6.000000 0.000000
10.500000 -6.000000 0.000000
11.250000 -6.000000 0.000000
12.000000 -6.000000 0.000000
12.750000 -6.000000 0.000000
13.500000 -6.000000 0.000000
14.250000 -6.000000 0.000000
15.000000 -6.000000 0.000000
15.750000 -6.000000 0.000000
16.500000 -6.000000 0.000000
17.250000 -6.000000 0.000000
18.000000 -6.000000 0.000000
18.750000 -6.000000 0.000000
19.500000 -6.000000 0.000000
20.250000 -6.000000 0.000000
21.000000 -6.000000 0.000000
21.750000 -6.000000 0.000000
22.500000 -6.000000 0.000000
23.250000 -6.000000 0.000000
24.000000 -6.000000 0.000000
24.750000 -6.000000 0.000000
25.500000 -6.000000 0.000000
26.250000 -6.000000 0.000000
27.000000 -6.000000 0.000000
27.750000 -6.000000 0.000000
28.500000 -6.000000 0.000000
29.250000 -6.000000 0.000000
30.000000 -6.000000 0.000000
30.750000 -6.000000 0.000000
31.500000 -6.000000 0.000000
32.250000 -6.000000 0.000000
33.000000 -6.000000 0.000000
33.750000 -6.000000 0.000000
34.500000 -6.000000 0.000000
35.250000 -6.000000 0.000000
36.000000 -6.000000 0.000000
36.750000 -6.000000 0.000000
37.500000 -6.000000 0.000000
38.250000 -6.000000 0.000000
39.000000 -6.000000 0.000000
39.750000 -6.000000 0.000000
40.500000 -6.000000 0.000000
41.250000 -6.000000 0.000000
42.000000 -6.000000 0.000000
42.750000 -6.000000 0.000000
43.500000 -6.000000 0.000000
44.250000 -6.000000 0.000000
45.000000 -6.000000 0.000000
45.750000 -6.000000 0.000000
46.500000 -6.000000 0.000000
47.250000 -6.000000 0.000000
48.000000 6.000000 0.000000
48.000000 -5.250000 0.000000
48.000000 -4.500000 0.000000
48.000000 -3.750000 0.000000
48.000000 -3.000000 0.000000
48.000000 -2.250000 0.000000
48.000000 -1.500000 0.000000
48.000000 -0.750000 0.000000
48.000000 -0.000000 0.000000
48.000000 0.750000 0.000000
48.000000 1.500000 0.000000
48.000000 2.250000 0.000000
48.000000 3.000000 0.000000
48.000000 3.750000 0.000000
48.000000 4.500000 0.000000
48.000000 5.250000 0.000000
0.000000 6.000000 0.000000
47.250000 6.000000 0.000000
46.500000 6.000000 0.000000
45.750000 6.000000 0.000000
45.000000 6.000000 0.000000
44.250000 6.000000 0.000000
43.500000 6.000000 0.000000
42.750000 6.000000 0.000000
42.000000 6.000000 0.000000
41.250000 6.000000 0.000000
40.500000 6.000000 0.000000
39.750000 6.000000 0.000000
39.000000 6.000000 0.000000
38.250000 6.000000 0.000000
37.500000 6.000000 0.000000
36.750000 6.000000 0.000000
36.000000 6.000000 0.000000
35.250000 6.000000 0.000000
34.500000 6.000000 0.000000
33.750000 6.000000 0.000000
33.000000 6.000000 0.000000
32.250000 6.000000 0.000000
31.500000 6.000000 0.000000
30.750000 6.000000 0.000000
30.000000 6.000000 0.000000
29.250000 6.000000 0.000000
28.500000 6.000000 0.000000
27.750000 6.000000 0.000000
27.000000 6.000000 0.000000
26.250000 6.000000 0.000000
25.500000 6.000000 0.000000
24.750000 6.000000 0.000000
24.000000 6.000000 0.000000
23.250000 6.000000 0.000000
22.500000 6.000000 0.000000
21.750000 6.000000 0.000000
21.000000 6.000000 0.000000
20.250000 6.000000 0.000000
19.500000 6.000000 0.000000
18.750000 6.000000 0.000000
18.000000 6.000000 0.000000
17.250000 6.000000 0.000000
16.500000 6.000000 0.000000
15.750000 6.000000 0.000000
15.000000 6.000000 0.000000
14.250000 6.000000 0.000000
13.500000 6.000000 0.000000
12.750000 6.000000 0.000000
12.000000 6.000000 0.000000
11.250000 6.000000 0.000000
10.500000 6.000000 0.000000
9.750000 6.000000 0.000000
9.000000 6.000000 0.000000
8.250000 6.000000 0.000000
7.500000 6.000000 0.000000
6.750000 6.000000 0.000000
6.000000 6.000000 0.000000
5.250000 6.000000 0.000000
4.500000 6.000000 0.000000
3.750000 6.000000 0.000000
3.000000 6.000000 0.000000
2.250000 6.000000 0.000000
1.500000 6.000000 0.000000
0.750000 6.000000 0.000000
0.000000 5.250000 0.000000
0.000000 4.500000 0.000000
0.000000 3.750000 0.000000
0.000000 3.000000 0.000000
0.000000 2.250000 0.000000
0.000000 1.500000 0.000000
0.000000 0.750000 0.000000
0.000000 0.000000 0.000000
0.000000 -0.750000 0.000000
0.000000 -1.500000 0.000000
0.000000 -2.250000 0.000000
0.000000 -3.000000 0.000000
0.000000 -3.750000 0.000000
0.000000 -4.500000 0.000000
0.000000 -5.250000 0.000000
47.240434 5.173548 0.000000
30.364586 -0.785507 0.000000
47.225162 3.466240 0.000000
14.592070 -4.496473 0.000000
33.494550 2.895245 0.000000
33.336842 -0.224610 0.000000
32.119469 -1.378193 0.000000
4.190018 0.687004 0.000000
28.871749 3.718069 0.000000
13.576027 -3.042456 0.000000
29.290547 2.184900 0.000000
27.476249 -2.367200 0.000000
1.553524 2.429092 0.000000
35.606978 -1.355635 0.000000
30.818240 -4.481006 0.000000
38.980340 4.457130 0.000000
44.250275 -2.791483 0.000000
13.493695 5.225687 0.000000
24.299858 3.847947 0.000000
3.756860 -1.808501 0.000000
3.117478 -3.107870 0.000000
13.245893 -2.299424 0.000000
27.708476 -4.578455 0.000000
10.035343 -0.043943 0.000000
13.191771 -3.714520 0.000000
24.397611 -4.644389 0.000000
36.690132 2.275773 0.000000
36.672202 -3.026306 0.000000
21.328584 -2.854509 0.000000
21.927743 -0.419728 0.000000
16.816114 -1.112828 0.000000
25.383254 -5.187108 0.000000
22.097942 -3.635921 0.000000
42.783734 4.424466 0.000000
18.190532 -4.481710 0.000000
12.695910 -2.899924 0.000000
33.519287 4.452607 0.000000
42.872329 -1.143280 0.000000
6.004377 4.438435 0.000000
29.064541 -2.648409 0.000000
32.363610 -4.463539 0.000000
39.865265 -2.763548 0.000000
15.089394 -5.227037 0.000000
26.730543 0.412438 0.000000
45.733827 -2.798676 0.000000
3.172335 0.304630 0.000000
17.522310 -3.740416 0.000000
6.981353 -0.503258 0.000000
43.550034 -1.123628 0.000000
36.589001 -0.876314 0.000000
47.236120 1.668966 0.000000
6.510417 3.763271 0.000000
24.016071 3.214839 0.000000
28.254306 -0.324210 0.000000
4.136025 -1.114731 0.000000
14.374777 2.189858 0.000000
4.796153 2.172631 0.000000
43.511379 5.209111 0.000000
41.222506 1.342469 0.000000
5.218167 -0.703641 0.000000
24.209097 0.583002 0.000000
7.140216 -2.078726 0.000000
29.655699 4.415275 0.000000
28.864483 0.117942 0.000000
22.073623 0.914362 0.000000
21.022750 4.476217 0.000000
8.957179 3.673823 0.000000
40.479555 1.291261 0.000000
0.766168 -0.859644 0.000000
38.964642 3.690677 0.000000
39.320841 -3.444241 0.000000
2.500188 0.654026 0.000000
25.871405 2.645572 0.000000
33.118814 -5.219422 0.000000
42.020386 3.658661 0.000000
37.446204 4.482261 0.000000
31.982203 4.451257 0.000000
5.769527 2.405787 0.000000
25.103413 -1.771903 0.000000
20.077121 4.459508 0.000000
27.280047 -1.280086 0.000000
25.252153 -4.480144 0.000000
29.898796 -1.822492 0.000000
44.269123 2.032972 0.000000
6.556979 -1.310912 0.000000
5.469862 1.709354 0.000000
9.290460 -2.869631 0.000000
14.068076 -0.192436 0.000000
1.564497 -2.980781 0.000000
28.213695 -1.955320 0.000000
11.147588 -1.210273 0.000000
37.887613 -4.129079 0.000000
30.149275 0.997588 0.000000
41.678785 -1.025084 0.000000
43.564773 -3.578841 0.000000
38.954030 -1.488320 0.000000
1.547831 -1.323571 0.000000
27.740806 4.040765 0.000000
22.046957 -5.252675 0.000000
7.255499 1.857221 0.000000
24.789024 -2.862716 0.000000
25.706960 -1.584772 0.000000
2.281261 -5.228873 0.000000
35.559331 3.446288 0.000000
24.595932 -5.271389 0.000000
42.786749 -2.850278 0.000000
16.160701 -1.371046 0.000000
45.719786 3.621422 0.000000
30.617198 -1.547270 0.000000
39.000208 -5.233532 0.000000
9.302054 -4.440427 0.000000
28.498083 -5.239660 0.000000
9.755390 -5.225215 0.000000
40.514158 0.470909 0.000000
19.308117 0.509207 0.000000
33.537733 5.215618 0.000000
7.552841 -2.862206 0.000000
11.514915 0.359435 0.000000
40.537634 -2.258773 0.000000
23.733195 4.482362 0.000000
37.450429 -3.072474 0.000000
46.468745 0.405334 0.000000
0.776002 -4.374945 0.000000
42.806642 -0.310488 0.000000
26.605046 -2.731381 0.000000
19.022801 -4.463073 0.000000
43.542632 0.467607 0.000000
39.124367 -0.404074 0.000000
7.352324 -1.289845 0.000000
37.472301 5.232631 0.000000
18.208290 -2.240367 0.000000
19.730357 -2.146176 0.000000
7.537904 -4.429585 0.000000
36.525782 1.477039 0.000000
19.062277 -2.916844 0.000000
1.494961 4.329832 0.000000
30.266547 2.133899 0.000000
29.143307 -3.187468 0.000000
47.241879 -0.067720 0.000000
34.961674 3.693238 0.000000
11.535949 -5.219387 0.000000
10.402537 4.426690 0.000000
27.409413 -3.466821 0.000000
26.191652 4.646753 0.000000
24.134176 -3.078263 0.000000
7.978856 -3.648339 0.000000
9.811134 0.706382 0.000000
33.782016 -3.596631 0.000000
32.713402 5.214800 0.000000
23.363039 -0.264588 0.000000
33.932759 0.527844 0.000000
31.261315 2.946870 0.000000
42.084022 -4.456019 0.000000
16.174862 1.025981 0.000000
3.683889 5.227207 0.000000
47.231974 2.570255 0.000000
14.619414 0.680651 0.000000
37.205462 0.632036 0.000000
3.991067 -4.438498 0.000000
44.263548 -0.359447 0.000000
18.726543 5.257444 0.000000
28.232808 2.436644 0.000000
46.471904 2.865215 0.000000
35.531313 0.447601 0.000000
20.634782 -4.441655 0.000000
8.230275 5.211920 0.000000
26.268580 -0.459896 0.000000
38.062008 0.081400 0.000000
40.558061 -4.524718 0.000000
22.676617 -1.976951 0.000000
46.477479 2.047598 0.000000
36.593004 -1.475849 0.000000
17.050796 0.571929 0.000000
6.673361 -2.872570 0.000000
12.659468 5.215171 0.000000
1.563322 3.243546 0.000000
37.397631 3.757257 0.000000
14.338787 4.484659 0.000000
27.571708 1.992823 0.000000
44.244428 5.209672 0.000000
16.933438 -5.225023 0.000000
36.307327 -4.652813 0.000000
23.520255 -0.968187 0.000000
26.381437 -3.241909 0.000000
25.950493 3.731599 0.000000
22.854870 -5.192741 0.000000
17.228973 -1.758679 0.000000
0.780436 -1.764068 0.000000
8.938279 2.127669 0.000000
38.906054 0.691700 0.000000
[...]
POINT_DATA 1058
SCALARS P float 1
LOOKUP_TABLE default
916.144120
2.942357
855.209756
810.980312
844.111159
806.882249
805.838746
786.990313
777.008790
762.505880
749.396833
734.609811
720.436239
706.549656
694.555400
681.599972
668.790564
652.627381
639.860084
626.205942
611.811867
600.541994
588.515802
571.767241
557.785701
543.988640
530.863230
517.146451
504.302632
488.899904
477.824066
462.882798
449.464828
435.353455
423.393323
407.545544
396.666076
380.259381
368.973742
353.260457
340.531700
326.287961
312.583473
298.824019
285.056169
271.509625
257.458885
244.432660
230.885891
217.152304
203.801035
190.383085
176.386842
162.212224
148.622324
134.977327
121.222243
107.618139
93.870266
80.346390
66.418375
53.477504
38.413864
27.029303
9.495785
-5.169602
4.090069
3.529439
3.327427
2.337374
2.034214
1.322716
0.767080
0.097447
-0.514746
-1.168266
-1.676232
-2.487573
-2.267050
-4.296412
-2.373011
-1003.062761
-12.486822
-30.114073
-41.503828
-56.414656
-69.346155
-83.345564
-96.800504
-110.614546
-124.277885
-137.943770
-151.584953
-165.320049
-179.188760
-192.557763
-207.317309
-220.483260
-233.972930
-247.136287
-260.808280
-274.551476
-288.039759
-301.803469
-315.147612
-329.138108
-341.672255
-357.853244
-371.251987
-390.399324
-398.350804
-413.744379
-424.134575
-440.180313
-452.026797
-466.755382
-481.986606
-492.995866
-505.980564
-518.339359
-536.973215
-549.615463
-562.521140
-575.147448
-587.928534
-602.338344
-616.063021
-629.481088
-643.034651
-656.626790
-669.869304
-683.249832
-695.428314
-709.779098
-724.786414
-738.526948
-751.828735
-767.219458
-777.205189
-791.917532
-806.191323
-827.775855
-818.568080
-870.146768
-801.848879
-745.068396
-725.528654
-551.745903
-471.946725
-354.862801
-251.185564
-140.399239
-31.338982
73.178385
186.305075
289.681014
401.477872
510.759846
622.056027
704.608220
-9.232518
40.736063
-6.848823
451.683368
-126.164902
9.811501
65.852435
-88.727111
-208.532255
311.137434
-122.155722
147.971806
-350.184179
50.056767
231.223935
-121.198547
31.238845
-531.842388
-267.769093
243.151669
414.758138
240.048962
281.598132
5.744905
385.854515
330.302711
-77.205612
101.834693
225.875798
33.247694
103.563467
348.274784
282.457898
-69.400736
400.851584
306.741519
-193.947177
18.089447
-561.384726
146.964128
209.129119
67.080115
506.484123
-27.011550
18.699629
-31.213153
339.644766
61.973831
14.995404
28.961741
-3.121649
-460.958691
-231.765722
18.389322
139.810973
-219.111436
-281.073787
-68.363560
-26.851462
89.067365
-44.176547
254.178622
-242.445628
-6.428268
-70.022004
-364.796767
-425.661798
-29.623584
158.173353
-98.505090
89.527388
-104.266638
-173.710990
230.585968
-64.772416
-142.700577
-214.582818
-303.680268
122.442227
-372.678304
78.917417
307.175613
98.034157
-22.451118
162.145580
-216.395568
331.736175
20.161483
393.867873
114.534956
133.374940
123.930915
-52.200965
20.119375
47.522397
40.500882
166.328744
-236.935477
401.453604
-226.551161
196.967870
106.487981
713.045876
-129.713599
362.923906
44.307061
131.005889
-24.173292
81.566506
140.310509
514.908067
303.292595
591.730252
-10.368563
-44.758876
-221.790312
345.044044
-38.517312
50.340981
-327.380646
96.515666
-1.802450
651.953837
4.834882
171.435165
387.926584
-6.090338
10.558310
156.097614
-161.660158
199.019293
181.239427
536.562285
-49.637733
252.546830
-642.020849
-113.585224
182.249468
0.267053
-141.412939
562.670319
-498.962385
217.188215
-310.520623
219.789327
436.154765
-81.769367
152.844672
-234.618639
22.061566
-21.782437
-148.016185
78.939594
-96.268695
-679.832549
-4.869149
-67.575576
-19.632808
585.120353
4.116178
-450.639696
-143.437216
-13.824218
-15.974277
365.144498
-611.749228
28.428248
-2.980007
100.883299
149.677309
-9.678477
50.845039
-52.711442
355.305691
-543.506692
-476.041284
-118.062674
-453.845288
-122.319489
-56.931736
481.458843
164.134294
68.656546
212.980310
-243.600242
386.055232
162.798462
280.779741
-245.297167
-19.555878
178.485192
-153.990410
-42.885810
-364.876430
-277.759562
-20.011143
25.903169
-21.917742
46.812582
466.112228
-268.440946
-392.764997
-134.159114
266.273611
19.204028
22.091037
42.228209
-209.888584
27.902874
-101.481569
2.722881
-264.980494
388.123520
-100.261388
453.104596
367.744956
347.499857
65.414447
-192.861583
-22.630844
119.577660
-297.345332
266.666086
55.527701
538.633409
-373.343901
-59.493929
-525.192285
-355.639983
-228.371696
104.801496
-2.642629
-138.071856
6.955617
-431.801051
-29.888158
37.887131
32.961008
-223.168943
-418.635624
202.099972
-79.637317
-316.791395
289.929443
362.643916
416.946887
-137.527827
18.332515
-306.831587
164.782258
508.924703
-204.034407
461.786849
-128.311686
-102.963917
-117.564089
-9.692226
4.538472
-74.209190
277.737936
164.326209
-431.018157
49.841628
478.024694
84.585895
-115.029906
15.896273
74.337907
-512.162767
-254.013530
140.490378
269.921373
-117.507266
-40.467353
-139.190536
-382.585000
-337.547597
18.645842
-27.155425
0.047116
3.772182
125.793264
-341.921322
-134.976347
-84.673327
-18.766351
127.741969
2.186242
177.682602
-123.086817
-288.573023
409.705366
-64.753183
282.106956
-295.161932
-268.229895
-224.596037
280.157538
410.572178
-23.332319
173.842847
-179.207636
38.441237
-58.055852
581.722410
55.482330
32.635445
-393.392328
-247.427971
591.736437
-20.622211
91.838293
492.253806
-478.580318
-245.445554
43.371136
-80.613528
77.184234
-128.304473
48.931321
-25.415030
13.595123
-90.365337
-44.488111
337.660961
-569.350684
-126.070899
49.216235
-8.012566
-158.088079
-549.171772
54.241678
-236.299042
-410.755900
240.198479
-321.801709
-143.155143
140.344032
-37.658273
699.714801
-31.387680
-391.171096
58.532258
260.710395
247.279408
26.473742
-45.321720
-74.923155
-61.096339
-26.125602
-184.595968
111.192124
-287.315494
312.849407
-309.455867
-110.281046
336.587328
98.323973
5.589554
-4.767623
254.534683
36.082965
131.429807
-197.622502
47.941683
236.794989
-137.434048
-39.965765
-556.378155
245.653788
35.869583
-329.385220
525.320971
76.110540
40.210813
767.895476
50.893490
51.904205
-173.656658
-54.207286
-51.114469
51.770457
36.772083
152.129625
-54.901585
75.561608
204.049017
5.044182
388.198119
-427.617503
56.694987
-158.001417
258.953268
239.703019
-354.960268
-17.929845
27.734140
336.159910
284.162366
-81.835402
48.688274
65.191518
-73.510657
136.071539
445.551819
24.219821
-443.033391
-395.785023
-492.126165
196.900268
181.905456
-213.378471
64.972467
71.903849
-13.617278
-261.194387
-16.735382
-149.762249
-371.832038
-309.016166
-464.656957
339.672796
-32.301270
28.038778
68.455390
233.837148
137.718444
151.752884
-29.140504
-354.798441
304.267179
-359.886980
25.432374
-33.431530
229.004524
116.605171
-671.376920
493.198210
-737.598920
327.826272
-68.524852
-486.835071
5.458589
-47.007132
21.828490
156.876219
-32.954910
-267.355318
561.318317
8.099580
169.412874
217.278708
-132.549407
-655.631850
15.795611
7.873072
-37.471774
36.901764
-167.171330
12.481632
-569.933762
426.803116
-7.280677
422.448190
-699.739361
191.295581
21.129652
-255.133125
-7.376752
376.449950
255.133099
46.061694
-191.733003
-112.664635
-184.038763
-6.188785
219.919932
364.497086
-150.422376
265.721962
308.606013
-65.421700
87.906729
-174.875513
190.374470
-182.419833
104.352377
-229.858844
-23.394308
-176.680579
-275.516321
243.005862
-483.940752
-196.242683
621.276693
-149.762020
-262.198000
30.727134
-76.484473
-235.882569
13.117477
130.063995
87.631003
101.472475
218.246494
117.318755
-210.040686
-58.461111
185.183830
-1.407425
-96.620214
107.051801
388.034233
-139.555551
-111.400295
-171.849170
-167.091396
60.217147
103.774802
13.801569
118.569271
44.814940
-17.000298
6.185883
198.483138
164.744240
29.829438
191.618389
-625.280893
-582.696301
-67.605071
-89.963162
-129.820110
57.522748
-13.300605
-97.214012
305.002438
-317.093617
-187.445786
-301.141614
220.235931
14.049527
-114.633085
88.103312
-405.930475
-129.210837
63.155505
-438.594823
-110.361826
-11.688549
330.593407
93.029287
-45.643781
455.236307
-95.735956
-591.497827
34.588164
-40.827980
-220.557387
11.877212
20.959742
24.936831
62.035601
198.788314
163.981322
-114.769600
-73.297616
-242.248295
129.667542
-3.987190
523.742602
-635.288383
41.802195
93.143168
-340.069528
-200.366339
-66.363670
606.205422
-197.182363
128.119742
-327.558277
496.287979
90.310111
227.635811
-528.982103
6.180499
-261.022852
-356.235713
413.483281
310.174812
-3.645412
-274.180470
79.032403
395.367110
60.715668
-38.111265
-104.142792
-90.447773
318.069104
65.723212
347.038188
65.900365
-254.529106
39.167619
489.564405
-225.904002
15.435690
-215.967255
-79.899827
164.299838
93.712577
-51.432926
-27.322032
-381.548361
144.537521
378.746257
91.435939
-422.074673
441.312062
5.801237
-154.627996
-32.264765
-29.721155
77.768042
-10.519621
17.461846
136.344565
177.689481
630.479320
-405.434150
-131.378530
-192.362986
-126.451553
173.589789
154.954170
-131.350544
164.083171
80.811584
-151.290338
-5.822851
-111.148176
92.685226
151.505306
467.943456
-71.271151
242.610765
-295.617516
-1.766232
-297.541799
686.289559
-56.289909
184.852517
-320.743931
-613.323461
26.361334
-368.769140
-93.092235
-155.325385
61.592234
-300.168213
-80.139609
-77.697551
34.109678
-402.473637
146.988216
-389.921793
151.725078
-38.122961
197.464383
41.090361
264.589639
-187.311606
-505.420204
3.612584
-701.198103
618.801133
445.136321
-49.547881
-519.706047
87.804348
504.642649
-322.860935
-150.882321
102.798823
86.105816
-586.087555
162.298717
-18.019494
135.820278
469.880005
-411.023822
-13.354370
19.759198
185.093498
146.766275
56.331648
-145.556560
25.862540
-488.688652
109.772361
-34.238679
-92.104665
152.012693
116.311697
86.697721
78.057518
112.084037
10.114805
234.137565
32.237169
-162.940412
138.242178
-199.635568
2.126137
427.753914
-8.325276
-422.426390
-38.663920
-33.700966
-254.392500
-468.520923
-600.469488
303.346717
-338.707406
-42.842616
-42.294413
-150.278749
656.735535
-38.136244
-33.346850
-23.710729
-45.807348
-60.186705
685.870658
-44.298014
51.168721
550.514940
13.320428
218.991010
-47.990404
-29.906649
-162.644154
262.441673
210.796405
185.216129
-16.376950
-90.816422
643.466727
215.582625
-44.737753
57.159243
185.537621
-486.930842
-206.893365
369.238587
117.428462
267.506637
-143.846252
-225.683005
108.625546
-492.927825
-159.595411
-156.141182
-131.805296
-185.179018
524.960614
-62.194501
-7.780075
152.164375
83.899363
10.883872
-471.138081
-498.709776
66.911924
30.927714
-273.283458
-202.572240
279.316517
-71.456234
63.923748
376.126736
39.969333
-132.671820
-299.486282
-24.039746
272.158523
-22.872693
-107.726620
101.720436
259.993249
191.793079
-0.853624
-89.326919
-129.879727
34.444671
48.576801
26.833879
-80.220642
-393.457727
-322.215066
-218.945392
-309.225240
-233.731056
-0.678975
-81.244345
304.929767
118.517765
465.957417
-270.166939
-223.057212
319.033554
-460.928311
-215.130159
-91.172807
-283.687746
298.216224
-107.977162
147.775803
5.115846
211.834712
182.289260
2.004899
-324.183938
-477.907685
147.908787
286.261391
341.255960
414.100597
-45.796677
2.984861
-15.751023
7.289127
-102.887058
111.630436
112.227362
75.003251
-376.145456
109.824863
-108.790439
84.764587
-90.035409
568.977995
264.430263
147.568968
-219.990891
-57.092019
115.445389
669.078262
-214.965874
-19.172943
318.384734
-294.479640
270.288616
-52.835627
-51.508038
37.522270
27.922481
36.498879
-335.468082
155.896967
-10.905674
357.690115
-165.697353
41.805074
-387.124453
14.203237
9.991024
-171.985166
-7.550149
77.187483
3.529765
-18.673446
-91.195699
-180.646038
265.564486
-148.330801
-86.810535
-296.513231
-54.907279
-67.849280
575.488880
-103.536550
-74.379748
172.552248
-71.789219
220.226356
-345.687732
64.087115
-77.185238
237.549800
121.167905
287.352765
242.314585
-197.520765
-599.452737
111.011433
59.671820
550.308197
