# vtk DataFile Version 2.0
patchtest_tri3_mix
ASCII
DATASET POLYDATA
POINTS 441 float
0.000000 0.000000 0.000000
1.000000 0.000000 0.000000
1.000000 1.000000 0.000000
0.000000 1.000000 0.000000
0.052632 0.000000 0.000000
0.105263 0.000000 0.000000
0.157895 0.000000 0.000000
0.210526 0.000000 0.000000
0.263158 0.000000 0.000000
0.315789 0.000000 0.000000
0.368421 0.000000 0.000000
0.421053 0.000000 0.000000
0.473684 0.000000 0.000000
0.526316 0.000000 0.000000
0.578947 0.000000 0.000000
0.631579 0.000000 0.000000
0.684211 0.000000 0.000000
0.736842 0.000000 0.000000
0.789474 0.000000 0.000000
0.842105 0.000000 0.000000
0.894737 0.000000 0.000000
0.947368 0.000000 0.000000
1.000000 0.052632 0.000000
1.000000 0.105263 0.000000
1.000000 0.157895 0.000000
1.000000 0.210526 0.000000
1.000000 0.263158 0.000000
1.000000 0.315789 0.000000
1.000000 0.368421 0.000000
1.000000 0.421053 0.000000
1.000000 0.473684 0.000000
1.000000 0.526316 0.000000
1.000000 0.578947 0.000000
1.000000 0.631579 0.000000
1.000000 0.684211 0.000000
1.000000 0.736842 0.000000
1.000000 0.789474 0.000000
1.000000 0.842105 0.000000
1.000000 0.894737 0.000000
1.000000 0.947368 0.000000
0.947368 1.000000 0.000000
0.894737 1.000000 0.000000
0.842105 1.000000 0.000000
0.789474 1.000000 0.000000
0.736842 1.000000 0.000000
0.684211 1.000000 0.000000
0.631579 1.000000 0.000000
0.578947 1.000000 0.000000
0.526316 1.000000 0.000000
0.473684 1.000000 0.000000
0.421053 1.000000 0.000000
0.368421 1.000000 0.000000
0.315789 1.000000 0.000000
0.263158 1.000000 0.000000
0.210526 1.000000 0.000000
0.157895 1.000000 0.000000
0.105263 1.000000 0.000000
0.052632 1.000000 0.000000
0.000000 0.947368 0.000000
0.000000 0.894737 0.000000
0.000000 0.842105 0.000000
0.000000 0.789474 0.000000
0.000000 0.736842 0.000000
0.000000 0.684211 0.000000
0.000000 0.631579 0.000000
0.000000 0.578947 0.000000
0.000000 0.526316 0.000000
0.000000 0.473684 0.000000
0.000000 0.421053 0.000000
0.000000 0.368421 0.000000
0.000000 0.315789 0.000000
0.000000 0.263158 0.000000
0.000000 0.210526 0.000000
0.000000 0.157895 0.000000
0.000000 0.105263 0.000000
0.000000 0.052632 0.000000
0.288687 0.045618 0.000000
0.910402 0.946005 0.000000
0.135192 0.808781 0.000000
0.629514 0.160198 0.000000
0.710880 0.700766 0.000000
0.261440 0.092527 0.000000
0.159820 0.098505 0.000000
0.550661 0.046853 0.000000
0.634209 0.734948 0.000000
0.338666 0.136263 0.000000
0.625697 0.373272 0.000000
0.673237 0.240844 0.000000
0.186052 0.819550 0.000000
0.953266 0.086129 0.000000
0.859728 0.188992 0.000000
0.859835 0.137051 0.000000
0.449079 0.861330 0.000000
0.685057 0.651804 0.000000
0.367897 0.092322 0.000000
0.135037 0.146349 0.000000
0.324077 0.801350 0.000000
0.538528 0.688432 0.000000
0.445722 0.719243 0.000000
0.210180 0.345655 0.000000
0.108482 0.616302 0.000000
0.648033 0.464314 0.000000
0.910112 0.053961 0.000000
0.813801 0.108892 0.000000
0.500030 0.727229 0.000000
0.814190 0.948427 0.000000
0.953637 0.553119 0.000000
0.529975 0.546449 0.000000
0.907060 0.475434 0.000000
0.482448 0.678468 0.000000
0.228852 0.541975 0.000000
0.039783 0.042080 0.000000
0.772010 0.515725 0.000000
0.663896 0.836867 0.000000
0.903611 0.785875 0.000000
0.489931 0.300636 0.000000
0.446943 0.953490 0.000000
0.442816 0.579605 0.000000
0.624763 0.421592 0.000000
0.090517 0.565788 0.000000
0.263505 0.500757 0.000000
0.478226 0.817280 0.000000
0.315211 0.365602 0.000000
0.050471 0.912895 0.000000
0.258923 0.893140 0.000000
0.315356 0.089380 0.000000
0.369576 0.519976 0.000000
0.212256 0.913089 0.000000
0.583576 0.552903 0.000000
0.410070 0.190372 0.000000
0.335802 0.561509 0.000000
0.236240 0.047368 0.000000
0.375909 0.807083 0.000000
0.906034 0.423319 0.000000
0.659609 0.953379 0.000000
0.736310 0.752462 0.000000
0.282531 0.551805 0.000000
0.096238 0.711285 0.000000
0.859303 0.293744 0.000000
0.766689 0.189306 0.000000
0.906340 0.161462 0.000000
0.812682 0.268192 0.000000
0.202780 0.728375 0.000000
0.091714 0.418407 0.000000
0.672778 0.350119 0.000000
0.044087 0.814830 0.000000
0.765666 0.348396 0.000000
0.721793 0.512423 0.000000
0.629237 0.318077 0.000000
0.581912 0.906913 0.000000
0.246351 0.303963 0.000000
0.957034 0.039583 0.000000
0.551421 0.596566 0.000000
0.048660 0.234996 0.000000
0.953400 0.913798 0.000000
0.098456 0.198404 0.000000
0.673865 0.294141 0.000000
0.262955 0.355639 0.000000
0.625798 0.212828 0.000000
0.952504 0.812994 0.000000
0.813016 0.215394 0.000000
0.469253 0.395506 0.000000
0.953636 0.605761 0.000000
0.509401 0.496143 0.000000
0.408522 0.620973 0.000000
0.775144 0.911426 0.000000
0.905907 0.371149 0.000000
0.538644 0.315962 0.000000
0.221257 0.781056 0.000000
0.500899 0.953050 0.000000
0.053212 0.088768 0.000000
0.677284 0.892324 0.000000
0.269000 0.644734 0.000000
0.056943 0.504121 0.000000
0.209983 0.491284 0.000000
0.562076 0.503647 0.000000
0.356244 0.184295 0.000000
0.952767 0.762016 0.000000
0.142501 0.284400 0.000000
0.384679 0.427091 0.000000
0.239511 0.835672 0.000000
0.212113 0.099429 0.000000
0.282099 0.262307 0.000000
0.820159 0.525707 0.000000
0.861035 0.913896 0.000000
0.502023 0.865430 0.000000
0.581320 0.288936 0.000000
0.573319 0.647300 0.000000
0.052997 0.758418 0.000000
0.812291 0.373862 0.000000
0.759135 0.805570 0.000000
0.813400 0.162538 0.000000
0.373071 0.232781 0.000000
0.388083 0.282376 0.000000
0.249021 0.593174 0.000000
0.242677 0.152544 0.000000
0.765702 0.861019 0.000000
0.117344 0.521515 0.000000
0.162620 0.624906 0.000000
0.436469 0.437058 0.000000
0.811337 0.477264 0.000000
0.674466 0.135745 0.000000
0.313415 0.899296 0.000000
0.132667 0.668086 0.000000
0.272645 0.792769 0.000000
0.523099 0.204674 0.000000
0.041784 0.133661 0.000000
0.953006 0.864194 0.000000
0.767432 0.137149 0.000000
0.520348 0.406337 0.000000
0.553210 0.953166 0.000000
0.953346 0.448283 0.000000
0.632273 0.913718 0.000000
0.094762 0.847200 0.000000
0.953046 0.343581 0.000000
0.627731 0.651301 0.000000
0.605271 0.602335 0.000000
0.819090 0.613166 0.000000
0.953186 0.238904 0.000000
0.130069 0.379534 0.000000
0.464954 0.196681 0.000000
0.316616 0.510389 0.000000
0.766799 0.611287 0.000000
0.788465 0.750577 0.000000
0.719819 0.268035 0.000000
0.254553 0.739238 0.000000
0.199715 0.868166 0.000000
0.335322 0.273644 0.000000
0.659439 0.605521 0.000000
0.439811 0.290474 0.000000
0.718872 0.374397 0.000000
0.906808 0.682791 0.000000
0.462296 0.768206 0.000000
0.104584 0.899995 0.000000
0.907781 0.579848 0.000000
0.712757 0.050248 0.000000
0.418512 0.385118 0.000000
0.727921 0.901234 0.000000
0.563404 0.796198 0.000000
0.235983 0.686660 0.000000
0.245836 0.449635 0.000000
0.859520 0.241292 0.000000
0.403225 0.478555 0.000000
0.106192 0.097785 0.000000
0.367110 0.903164 0.000000
0.530408 0.905374 0.000000
0.339722 0.705580 0.000000
0.174234 0.532099 0.000000
0.350855 0.324137 0.000000
0.193590 0.440379 0.000000
0.677295 0.087150 0.000000
0.542058 0.149456 0.000000
0.574253 0.091216 0.000000
0.722533 0.107207 0.000000
0.953175 0.186892 0.000000
0.393594 0.952244 0.000000
0.856434 0.559259 0.000000
0.637109 0.557376 0.000000
0.084120 0.660888 0.000000
0.905824 0.528891 0.000000
0.673555 0.408489 0.000000
0.518062 0.638390 0.000000
0.722646 0.424442 0.000000
0.184076 0.676645 0.000000
0.132253 0.234476 0.000000
0.715593 0.848244 0.000000
0.500997 0.353794 0.000000
0.422751 0.529396 0.000000
0.813728 0.052316 0.000000
0.142181 0.573660 0.000000
0.620831 0.867414 0.000000
0.493476 0.150449 0.000000
0.859109 0.346254 0.000000
0.420564 0.906162 0.000000
0.760074 0.955552 0.000000
0.766381 0.242043 0.000000
0.576737 0.406974 0.000000
0.812374 0.320991 0.000000
0.302250 0.603080 0.000000
0.650441 0.785405 0.000000
0.811259 0.791568 0.000000
0.906510 0.891391 0.000000
0.280760 0.407555 0.000000
0.703699 0.796339 0.000000
0.699059 0.466136 0.000000
0.085918 0.951591 0.000000
0.185153 0.955293 0.000000
0.322177 0.654428 0.000000
0.497082 0.588387 0.000000
0.350745 0.468798 0.000000
0.230729 0.251712 0.000000
0.810530 0.427246 0.000000
0.298284 0.459136 0.000000
0.709509 0.949469 0.000000
0.690927 0.559717 0.000000
0.719150 0.321579 0.000000
0.389057 0.570704 0.000000
0.858580 0.810915 0.000000
0.402357 0.333240 0.000000
0.427569 0.670158 0.000000
0.758734 0.462072 0.000000
0.178464 0.388356 0.000000
0.099590 0.317164 0.000000
0.048134 0.289111 0.000000
0.865722 0.608241 0.000000
0.332724 0.417288 0.000000
0.954017 0.658034 0.000000
0.906264 0.266368 0.000000
0.576361 0.236640 0.000000
0.605168 0.955507 0.000000
0.524110 0.099476 0.000000
0.215986 0.634654 0.000000
0.586269 0.342166 0.000000
0.794219 0.659042 0.000000
0.863929 0.040619 0.000000
0.048147 0.865428 0.000000
0.797253 0.567624 0.000000
0.155473 0.335390 0.000000
0.146093 0.859170 0.000000
0.765888 0.295115 0.000000
0.355424 0.612586 0.000000
0.768028 0.086145 0.000000
0.142028 0.431207 0.000000
0.291231 0.846953 0.000000
0.047172 0.184135 0.000000
0.595327 0.699563 0.000000
0.115216 0.757852 0.000000
0.858556 0.398860 0.000000
0.862115 0.502310 0.000000
0.367158 0.375436 0.000000
0.852029 0.658751 0.000000
0.472066 0.098699 0.000000
0.343932 0.852859 0.000000
0.048447 0.450175 0.000000
0.628425 0.100182 0.000000
0.043679 0.553503 0.000000
0.713941 0.607469 0.000000
0.211639 0.198108 0.000000
0.816488 0.890295 0.000000
0.514522 0.776276 0.000000
0.953065 0.710134 0.000000
0.287926 0.132154 0.000000
0.150149 0.718096 0.000000
0.409886 0.761998 0.000000
0.762493 0.041326 0.000000
0.615536 0.508721 0.000000
0.188634 0.147365 0.000000
0.626512 0.264837 0.000000
0.763350 0.703999 0.000000
0.298549 0.314044 0.000000
0.086160 0.146015 0.000000
0.395233 0.046936 0.000000
0.302321 0.176645 0.000000
0.744083 0.562093 0.000000
0.462924 0.629304 0.000000
0.565932 0.856699 0.000000
0.476409 0.538215 0.000000
0.593362 0.460777 0.000000
0.046288 0.706747 0.000000
0.135279 0.049360 0.000000
0.905923 0.736125 0.000000
0.357846 0.756336 0.000000
0.039506 0.959460 0.000000
0.530873 0.262417 0.000000
0.305977 0.749045 0.000000
0.850705 0.756741 0.000000
0.447428 0.048530 0.000000
[...]
POINT_DATA 441
SCALARS P float 1
LOOKUP_TABLE default
490984839.693081
2517762094.650923
6883517282.909341
3156083863.122537
553902825.426255
626585009.251024
702732431.228367
783623391.049548
868519937.538103
957651615.166898
1051463867.617839
1149527521.160666
1252012290.341500
1359056095.272143
1469831520.856620
1585881893.013931
1705384782.439599
1829861843.193206
1958892627.180719
2091189972.021816
2229407616.555791
2370224980.304631
2701167490.231031
2890814693.988032
3087427948.094025
3289705613.224486
3499267077.476827
3714642829.593155
3936708513.810433
4165653186.354536
4400303759.034755
4642132933.010311
4890095521.766588
5144587532.412439
5405911403.653183
5673082278.645856
5947078090.502737
6228137108.075720
6509538526.383614
6844538839.126138
6896641983.257051
6611782743.426750
6378514944.006316
6144346845.696917
5913956325.838095
5689528043.490406
5467926675.851607
5250384019.583504
5038844404.291585
4830318305.540758
4626732471.168825
4427657295.074654
4232859974.127092
4042092855.709466
3858260915.274877
3672286944.877592
3499616644.105355
3321350286.535255
2956385595.028738
2766736444.139849
2580121866.505332
2401021152.634592
2227984495.804644
2061678995.736662
1901316190.654589
1748544489.394108
1601034015.063908
1460636661.221430
1326935295.379517
1199016498.294392
1078248781.422778
963083464.749141
855092927.658085
753918814.150637
658467874.770607
568926374.054610
1007805355.963431
6391151750.321432
2857397543.079090
2044940177.130387
4350179968.743471
1060762281.421037
894739220.551440
1532761770.500331
4221471303.945198
1312922316.628874
2743943406.556182
2420810071.299778
3052856698.063326
2682030140.308304
2774245082.054084
2591679098.187758
4107267769.628902
4040230060.314040
1264135495.045691
952104635.087716
3421874311.931700
3683693088.623101
3497106826.132320
1580804102.007170
2128503402.301403
3148943857.784770
2449291079.665316
2367166283.414025
3712572087.169339
5978465029.411052
4588216372.086886
3092949826.846852
4068150675.662729
3453551511.749832
2207566303.014954
607890088.650643
3764777774.873976
4800380120.373288
5518205583.175241
2124092611.835509
4513201078.856761
2948142185.322013
2916973465.679109
1927630966.214116
2166783767.782673
4018361724.028806
1882887451.367260
2982732136.151508
3577181364.031957
1154206301.661228
2519126174.945275
3502597968.700519
3286558395.075973
1606437290.374045
2566241497.016840
919795350.739534
3619297985.023645
3840984847.338164
5350469112.819412
4684046947.853721
2384665659.825148
2404068600.383891
3162304850.175708
2506833871.313727
2814404243.063549
2921896713.454344
2768718536.237167
1514242666.033068
2800158425.895576
2611746109.983736
3076630699.230499
3580002394.546403
2560367743.139856
4811866890.425912
1548517446.423488
2532788390.084923
3354505352.517427
989002309.970470
6407403368.569064
997912119.816026
2604805102.600300
1729347901.552310
2200903933.621109
5864170271.865073
2731578523.098334
2376101471.044345
4835366412.467086
2840824148.404906
2993325759.113900
5618217321.373623
3622700465.362390
2302139766.721347
3017834381.732256
4717218341.935779
706387375.725406
5120069195.664136
2665354365.335736
1669391959.837756
1999896306.062975
3029205392.968874
1471699053.363116
5602327210.513762
1279091011.509883
2250761930.616555
3284673684.694644
987197766.261847
1516229061.520992
3975743059.088156
5998907635.114429
4318548410.379520
2328914235.293659
3632027372.266467
2443038273.292396
3323441357.382099
5025316385.918835
2547491603.872007
1639394175.533327
1814885285.156046
2430069680.712688
1161644330.811824
5325352366.519005
1861705702.698486
2299269270.630558
2424764763.003870
3739728675.676366
2084490351.411187
3788051596.410973
2360585965.601794
3222749263.999765
1913806722.120511
773051761.009146
6138885842.633200
2334494726.266026
2555074033.277401
4921192127.312243
4115104950.842941
5042789541.194844
2877273960.044748
3668685394.369238
3835957454.959848
3554899844.360163
4357154941.549687
3249290359.218225
1494688699.602869
1750575993.632206
2339520882.481880
4156808802.730739
4877698960.298030
2645917659.893975
2963624145.395584
3285003384.473292
1666356291.108074
3752241540.975992
1965352797.398067
3029519575.700795
5020555438.499366
3754703067.019621
3103506334.972772
4538421877.409307
1920074239.422998
2205276837.514118
5369848413.658300
4233817975.069674
2716384941.934806
1963461106.527320
2965093956.850304
2471808915.300565
805587128.507082
3993522448.110485
4605469127.884482
3098954183.102026
2034865122.428679
1847328816.237427
1808414328.091738
1942383773.629751
1797718396.229053
1706806444.214742
2118583634.633226
3049743662.735799
4308485540.418707
4252837935.286698
3479989189.653042
2206412828.725985
4299482077.666336
3017119878.629357
3411349151.664332
3232439348.380170
2532419769.280013
1141486721.065031
5059449338.592138
2324024127.420946
2704324937.647665
2183295274.807475
2082030009.772839
4777759989.310218
1686502249.280165
3366305147.289788
4199041133.275241
5783696661.388020
2689582415.081946
2719502407.617633
3119135611.553278
2613697052.075463
4508762202.240396
5167082009.115973
6078854876.628750
1923162308.382866
4763363385.152883
3319866766.012351
3243850216.110391
3587136272.224131
2856881243.973526
3146589300.899836
2295964756.023373
1378809289.984136
3530868599.814759
2126020573.185396
5537646569.648292
3670234057.369503
2835204690.765565
2752517555.011578
5456566918.414324
2001424586.314943
3244024538.584412
3498808924.832857
1626175372.575781
1273189130.780331
1107285607.035387
4509447226.844743
2083628936.515626
5088037275.051990
3206442367.656325
2146951762.613600
5140700068.260948
1615105928.819319
2478572827.542140
2521238599.771518
4472470273.361844
2279588259.939689
2804470785.547116
4075636730.095742
1433888147.633636
3079792602.896640
2879101684.902894
2805104007.814959
2170278191.800387
1661215696.259168
3500990681.424012
880154253.591156
3926429174.107452
2618074025.533779
3576420163.524655
4023938475.167504
2042060465.190759
4690649783.120657
1497680478.028806
3702796501.618383
1503068079.323153
1861312324.526680
1778129457.880651
3950936552.012460
1209005647.792376
5685065276.820055
3970829775.948127
5341031411.395692
1202081152.902374
2578430685.529140
3550478547.891242
2017331843.538056
3217186361.881291
1049761402.725185
2372241341.885206
4561766816.230050
1694542567.328775
868766430.531613
1209727275.129969
1338486929.797181
3863338293.579602
3198471109.252182
4517301471.387138
2895932396.031452
2966271085.624262
2254206785.649051
759752757.424656
5277977373.658592
3358100686.711129
3133841953.329715
2110051028.258616
3162887936.450026
5154965610.981269
1318150944.804324
5797238220.450419
840159277.172118
2859472702.393156
3402891124.632002
6673467244.353254
3455305708.537834
4785759392.475221
6259834938.806156
4779823807.668034
3007614049.526656
5404162332.177574
4108597625.270513
1339641757.642859
4234422165.546259
4974918762.922955
1220875667.927487
3888219347.201154
1677057815.498904
2078138278.931879
3760858703.105150
1838837036.430844
1378759089.647482
1427992160.941170
2159490364.730278
1770139654.532634
3953533747.879080
683065721.150851
3902762566.197059
1936133778.565528
4348857521.712748
3914581176.271150
2655833540.703280
3817235657.684628
2673796600.810345
2417820264.055593
4254000002.901096
1784187727.844580
4506742596.116591
4123880327.231136
1557949846.292754
1996518711.819108
1366720854.456679
2624273411.194868
2784724888.185718
1432442267.769497
2464059314.607723
1658409347.095103
2811510566.772552
1956798961.214983
2907374520.765271
1355098028.673428
3307697307.796045
1868432130.853262
4223767593.046615
4451874027.243155
2250555761.088700
1495608827.137107
2499360646.036882
4408033781.942024
1768796783.370883
1092447901.785854
3289606703.398487
2252089809.850154
1411782195.021973
3411808356.470871
5727530617.362576
3286935761.506595
2604700750.647844
3401631476.313858
3791902308.808077
2287532231.325071
1254771371.121367
1105536673.149426
1129122375.118412
