# vtk DataFile Version 2.0
patchtest_tri3_mix
ASCII
DATASET POLYDATA
POINTS 78 float
0.000000 0.000000 0.000000
1.000000 0.000000 0.000000
1.000000 1.000000 0.000000
0.000000 1.000000 0.000000
0.125000 0.000000 0.000000
0.250000 0.000000 0.000000
0.375000 0.000000 0.000000
0.500000 0.000000 0.000000
0.625000 0.000000 0.000000
0.750000 0.000000 0.000000
0.875000 0.000000 0.000000
1.000000 0.125000 0.000000
1.000000 0.250000 0.000000
1.000000 0.375000 0.000000
1.000000 0.500000 0.000000
1.000000 0.625000 0.000000
1.000000 0.750000 0.000000
1.000000 0.875000 0.000000
0.875000 1.000000 0.000000
0.750000 1.000000 0.000000
0.625000 1.000000 0.000000
0.500000 1.000000 0.000000
0.375000 1.000000 0.000000
0.250000 1.000000 0.000000
0.125000 1.000000 0.000000
0.000000 0.875000 0.000000
0.000000 0.750000 0.000000
0.000000 0.625000 0.000000
0.000000 0.500000 0.000000
0.000000 0.375000 0.000000
0.000000 0.250000 0.000000
0.000000 0.125000 0.000000
0.702780 0.118497 0.000000
0.491028 0.360895 0.000000
0.131949 0.571619 0.000000
0.617267 0.401506 0.000000
0.878563 0.268789 0.000000
0.760744 0.744688 0.000000
0.367857 0.273465 0.000000
0.498344 0.236690 0.000000
0.421876 0.874947 0.000000
0.672190 0.647740 0.000000
0.677833 0.876872 0.000000
0.375047 0.431390 0.000000
0.259788 0.506835 0.000000
0.871286 0.398364 0.000000
0.294935 0.124461 0.000000
0.541974 0.634754 0.000000
0.882103 0.656603 0.000000
0.856540 0.128645 0.000000
0.744663 0.346076 0.000000
0.251530 0.367315 0.000000
0.758468 0.224402 0.000000
0.429010 0.126850 0.000000
0.237290 0.236412 0.000000
0.136813 0.863123 0.000000
0.570350 0.126022 0.000000
0.551212 0.877446 0.000000
0.121992 0.707395 0.000000
0.403054 0.610912 0.000000
0.497424 0.500390 0.000000
0.358594 0.748354 0.000000
0.261356 0.640513 0.000000
0.627357 0.261082 0.000000
0.630995 0.531267 0.000000
0.790613 0.874477 0.000000
0.122143 0.295633 0.000000
0.899565 0.891783 0.000000
0.231039 0.768333 0.000000
0.622553 0.761066 0.000000
0.748539 0.474324 0.000000
0.129314 0.435748 0.000000
0.288493 0.880328 0.000000
0.882044 0.524964 0.000000
0.139624 0.140030 0.000000
0.774574 0.598846 0.000000
0.488322 0.751919 0.000000
0.884435 0.774335 0.000000
POLYGONS 122 488
3 31 0 4
3 4 74 31
3 54 74 46
3 31 74 30
3 29 30 66
3 71 66 51
3 66 30 74
3 51 66 54
3 66 71 29
3 74 54 66
3 29 71 28
3 74 4 5
3 38 54 46
3 46 5 6
3 6 7 53
3 39 53 56
3 6 53 46
3 46 53 38
3 51 38 43
3 51 54 38
3 38 33 43
3 33 38 39
3 60 33 35
3 43 33 60
3 38 53 39
3 71 51 44
3 33 39 63
3 46 74 5
3 44 51 43
3 27 28 34
3 27 58 26
3 58 27 34
3 68 58 62
3 26 58 55
3 71 34 28
3 3 25 24
3 23 24 55
3 55 24 25
3 55 25 26
3 72 55 68
3 58 68 55
3 58 34 62
3 68 62 61
3 62 44 59
3 76 61 59
3 59 61 62
3 59 44 43
3 47 76 59
3 71 44 34
3 61 72 68
3 23 72 22
3 23 55 72
3 21 22 40
3 40 22 72
3 40 72 61
3 57 40 76
3 61 76 40
3 59 60 47
3 62 34 44
3 60 59 43
3 56 53 7
3 56 8 32
3 8 56 7
3 52 32 49
3 9 32 8
3 56 32 63
3 35 63 50
3 35 33 63
3 70 50 45
3 52 50 63
3 36 50 52
3 50 70 35
3 63 32 52
3 35 70 64
3 32 9 49
3 64 60 35
3 49 10 11
3 10 49 9
3 1 11 10
3 11 12 49
3 49 12 36
3 45 36 13
3 45 50 36
3 45 14 73
3 14 45 13
3 73 14 15
3 36 12 13
3 45 73 70
3 36 52 49
3 70 73 75
3 69 57 76
3 69 47 41
3 41 75 37
3 75 41 64
3 41 37 69
3 64 41 47
3 60 64 47
3 69 37 42
3 21 57 20
3 21 40 57
3 20 42 19
3 42 20 57
3 65 19 42
3 57 69 42
3 42 37 65
3 47 69 76
3 48 77 37
3 75 73 48
3 48 16 77
3 16 48 15
3 77 16 17
3 64 70 75
3 77 65 37
3 65 18 19
3 18 65 67
3 67 17 2
3 67 65 77
3 67 2 18
3 77 17 67
3 37 75 48
3 15 48 73
3 56 63 39
POINT_DATA 78
SCALARS P float 1
LOOKUP_TABLE default
3131.467011
-15.309416
96.285027
-3357.269322
2598.604300
2296.037939
1876.601401
1471.047960
1097.726401
725.062604
312.535023
38.575615
37.047791
26.644999
-7.597910
-64.438770
1.345945
-395.103367
-729.038586
-726.438032
-1334.239768
-1569.530754
-2023.970623
-2433.644936
-2690.058431
-1674.350094
-1379.283157
-498.885583
26.136905
940.372850
1652.738764
2093.682732
699.513216
428.462363
-405.684885
234.151792
134.987557
-313.774376
813.604307
794.618541
-1216.079531
-205.488008
-506.112338
265.489953
-39.237784
70.187534
1500.100381
-342.440277
-18.784890
337.211691
246.253987
621.431107
392.857728
1281.998688
1287.324084
-1892.411701
951.718017
-916.542843
-1196.714312
-371.000858
-11.929905
-1029.114334
-545.514728
518.590004
-81.452425
-656.634246
911.372719
416.515333
-1176.223339
-699.731042
60.169825
303.243441
-1410.976928
-1.345171
1793.372957
-196.817156
-736.810923
-282.840677
