# vtk DataFile Version 2.0
patchtest_tri3_mix
ASCII
DATASET POLYDATA
POINTS 800 float
0.000000 -6.000000 0.000000
48.000000 -6.000000 0.000000
48.000000 6.000000 0.000000
0.000000 6.000000 0.000000
0.857143 -6.000000 0.000000
1.714286 -6.000000 0.000000
2.571429 -6.000000 0.000000
3.428571 -6.000000 0.000000
4.285714 -6.000000 0.000000
5.142857 -6.000000 0.000000
6.000000 -6.000000 0.000000
6.857143 -6.000000 0.000000
7.714286 -6.000000 0.000000
8.571429 -6.000000 0.000000
9.428571 -6.000000 0.000000
10.285714 -6.000000 0.000000
11.142857 -6.000000 0.000000
12.000000 -6.000000 0.000000
12.857143 -6.000000 0.000000
13.714286 -6.000000 0.000000
14.571429 -6.000000 0.000000
15.428571 -6.000000 0.000000
16.285714 -6.000000 0.000000
17.142857 -6.000000 0.000000
18.000000 -6.000000 0.000000
18.857143 -6.000000 0.000000
19.714286 -6.000000 0.000000
20.571429 -6.000000 0.000000
21.428571 -6.000000 0.000000
22.285714 -6.000000 0.000000
23.142857 -6.000000 0.000000
24.000000 -6.000000 0.000000
24.857143 -6.000000 0.000000
25.714286 -6.000000 0.000000
26.571429 -6.000000 0.000000
27.428571 -6.000000 0.000000
28.285714 -6.000000 0.000000
29.142857 -6.000000 0.000000
30.000000 -6.000000 0.000000
30.857143 -6.000000 0.000000
31.714286 -6.000000 0.000000
32.571429 -6.000000 0.000000
33.428571 -6.000000 0.000000
34.285714 -6.000000 0.000000
35.142857 -6.000000 0.000000
36.000000 -6.000000 0.000000
36.857143 -6.000000 0.000000
37.714286 -6.000000 0.000000
38.571429 -6.000000 0.000000
39.428571 -6.000000 0.000000
40.285714 -6.000000 0.000000
41.142857 -6.000000 0.000000
42.000000 -6.000000 0.000000
42.857143 -6.000000 0.000000
43.714286 -6.000000 0.000000
44.571429 -6.000000 0.000000
45.428571 -6.000000 0.000000
46.285714 -6.000000 0.000000
47.142857 -6.000000 0.000000
48.000000 -5.142857 0.000000
48.000000 -4.285714 0.000000
48.000000 -3.428571 0.000000
48.000000 -2.571429 0.000000
48.000000 -1.714286 0.000000
48.000000 -0.857143 0.000000
48.000000 -0.000000 0.000000
48.000000 0.857143 0.000000
48.000000 1.714286 0.000000
48.000000 2.571429 0.000000
48.000000 3.428571 0.000000
48.000000 4.285714 0.000000
48.000000 5.142857 0.000000
47.142857 6.000000 0.000000
46.285714 6.000000 0.000000
45.428571 6.000000 0.000000
44.571429 6.000000 0.000000
43.714286 6.000000 0.000000
42.857143 6.000000 0.000000
42.000000 6.000000 0.000000
41.142857 6.000000 0.000000
40.285714 6.000000 0.000000
39.428571 6.000000 0.000000
38.571429 6.000000 0.000000
37.714286 6.000000 0.000000
36.857143 6.000000 0.000000
36.000000 6.000000 0.000000
35.142857 6.000000 0.000000
34.285714 6.000000 0.000000
33.428571 6.000000 0.000000
32.571429 6.000000 0.000000
31.714286 6.000000 0.000000
30.857143 6.000000 0.000000
30.000000 6.000000 0.000000
29.142857 6.000000 0.000000
28.285714 6.000000 0.000000
27.428571 6.000000 0.000000
26.571429 6.000000 0.000000
25.714286 6.000000 0.000000
24.857143 6.000000 0.000000
24.000000 6.000000 0.000000
23.142857 6.000000 0.000000
22.285714 6.000000 0.000000
21.428571 6.000000 0.000000
20.571429 6.000000 0.000000
19.714286 6.000000 0.000000
18.857143 6.000000 0.000000
18.000000 6.000000 0.000000
17.142857 6.000000 0.000000
16.285714 6.000000 0.000000
15.428571 6.000000 0.000000
14.571429 6.000000 0.000000
13.714286 6.000000 0.000000
12.857143 6.000000 0.000000
12.000000 6.000000 0.000000
11.142857 6.000000 0.000000
10.285714 6.000000 0.000000
9.428571 6.000000 0.000000
8.571429 6.000000 0.000000
7.714286 6.000000 0.000000
6.857143 6.000000 0.000000
6.000000 6.000000 0.000000
5.142857 6.000000 0.000000
4.285714 6.000000 0.000000
3.428571 6.000000 0.000000
2.571429 6.000000 0.000000
1.714286 6.000000 0.000000
0.857143 6.000000 0.000000
0.000000 5.142857 0.000000
0.000000 4.285714 0.000000
0.000000 3.428571 0.000000
0.000000 2.571429 0.000000
0.000000 1.714286 0.000000
0.000000 0.857143 0.000000
0.000000 0.000000 0.000000
0.000000 -0.857143 0.000000
0.000000 -1.714286 0.000000
0.000000 -2.571429 0.000000
0.000000 -3.428571 0.000000
0.000000 -4.285714 0.000000
0.000000 -5.142857 0.000000
46.264570 2.390269 0.000000
16.687440 0.001503 0.000000
37.175867 -0.112138 0.000000
43.764411 1.537275 0.000000
20.778316 5.137122 0.000000
16.600990 -4.306593 0.000000
29.144194 2.454352 0.000000
29.099494 0.806208 0.000000
37.837163 4.252869 0.000000
45.468797 0.868071 0.000000
23.685987 5.130448 0.000000
2.586754 4.263085 0.000000
0.892264 -3.099858 0.000000
37.206203 1.446136 0.000000
43.583334 3.529140 0.000000
22.808580 0.867384 0.000000
41.559980 -5.102053 0.000000
21.937354 0.876090 0.000000
25.077098 -3.694363 0.000000
29.993046 4.262911 0.000000
15.071425 -0.974631 0.000000
7.849527 -4.233439 0.000000
17.234608 -1.716739 0.000000
31.726260 5.133524 0.000000
5.293303 -1.743796 0.000000
38.596931 2.567001 0.000000
38.044347 0.735154 0.000000
9.800716 -4.275438 0.000000
32.424519 -1.018835 0.000000
31.687010 1.624354 0.000000
5.249473 1.694066 0.000000
23.654911 0.851709 0.000000
21.064449 0.872072 0.000000
5.205361 4.265723 0.000000
21.604996 -2.546935 0.000000
1.786440 -2.530459 0.000000
14.454578 4.244840 0.000000
14.171433 -3.376728 0.000000
21.137621 2.583637 0.000000
20.220527 -1.708527 0.000000
46.057151 -2.517998 0.000000
42.717928 4.098800 0.000000
30.851040 0.757270 0.000000
15.938395 -0.881157 0.000000
43.794908 2.515448 0.000000
38.023360 -2.642957 0.000000
19.222126 -1.718413 0.000000
25.912946 -4.239219 0.000000
16.695900 1.716060 0.000000
25.382385 1.611310 0.000000
41.087311 -2.431127 0.000000
29.233375 4.267944 0.000000
38.488535 -1.812203 0.000000
4.621569 5.130852 0.000000
15.126157 -3.356484 0.000000
36.270680 0.833651 0.000000
21.468455 -4.267924 0.000000
42.450298 0.196245 0.000000
29.734803 -1.797144 0.000000
12.148308 -5.152116 0.000000
11.364284 -3.520716 0.000000
43.548323 -3.318260 0.000000
47.099733 -0.220617 0.000000
9.374645 -3.450489 0.000000
33.306501 1.692305 0.000000
39.255094 5.133548 0.000000
37.251628 5.121519 0.000000
15.348495 -1.814677 0.000000
16.681922 0.859673 0.000000
40.051142 -2.547158 0.000000
27.219432 -0.828787 0.000000
17.311190 4.290220 0.000000
22.972097 3.432416 0.000000
32.599296 5.137545 0.000000
32.658265 0.764946 0.000000
12.289693 0.849841 0.000000
11.410029 0.543041 0.000000
43.529249 -5.100866 0.000000
25.737046 0.381930 0.000000
34.482070 0.682518 0.000000
17.086245 -5.158544 0.000000
39.876567 -0.709209 0.000000
18.732905 -0.858434 0.000000
23.868008 3.422196 0.000000
44.679227 0.190447 0.000000
1.744784 2.405881 0.000000
5.243699 0.834276 0.000000
34.075049 -1.049909 0.000000
32.492176 -0.091376 0.000000
1.737236 -5.175090 0.000000
15.832394 2.553253 0.000000
44.484631 3.257277 0.000000
13.497233 4.223527 0.000000
17.550048 0.021373 0.000000
2.707177 5.128924 0.000000
1.767221 -3.453031 0.000000
13.200779 -0.016286 0.000000
30.775649 -0.105818 0.000000
7.895814 -0.722452 0.000000
16.359188 4.283373 0.000000
5.256273 2.553453 0.000000
12.332617 -0.022854 0.000000
22.087480 3.438254 0.000000
27.458133 5.231647 0.000000
35.021885 -4.393842 0.000000
46.209144 4.367954 0.000000
35.266700 1.640958 0.000000
13.653774 -4.290428 0.000000
24.772676 3.392858 0.000000
42.048594 -2.481131 0.000000
46.283008 -5.112783 0.000000
32.512483 3.409425 0.000000
45.389527 -5.108991 0.000000
36.526293 -5.123047 0.000000
32.555517 4.274807 0.000000
46.176053 5.198972 0.000000
33.610232 0.941425 0.000000
25.535466 -3.166663 0.000000
5.241119 -0.886212 0.000000
22.817243 1.726310 0.000000
29.131314 5.133247 0.000000
27.316406 -3.413086 0.000000
30.332000 -3.514188 0.000000
16.706515 -2.584774 0.000000
40.634252 0.919117 0.000000
10.530342 0.822305 0.000000
23.682303 1.718943 0.000000
9.293552 -5.179902 0.000000
0.876423 1.950622 0.000000
1.736115 1.419665 0.000000
36.000092 3.433682 0.000000
28.967070 -0.905940 0.000000
36.491940 -1.815150 0.000000
33.307642 -1.603176 0.000000
44.467586 -1.565884 0.000000
37.556644 -5.132564 0.000000
12.893025 3.464232 0.000000
41.284021 3.426652 0.000000
8.746881 2.561431 0.000000
8.729333 4.255867 0.000000
29.818556 -4.307755 0.000000
44.017244 -2.384686 0.000000
47.132081 1.886162 0.000000
42.552798 -5.100576 0.000000
36.921278 4.257431 0.000000
5.234876 -0.026059 0.000000
14.055125 0.397761 0.000000
21.984768 0.024803 0.000000
39.503451 2.326513 0.000000
5.514877 -2.594055 0.000000
14.690630 -2.466158 0.000000
32.431828 -5.150021 0.000000
35.381338 0.730457 0.000000
4.308685 -4.288474 0.000000
21.076863 1.728424 0.000000
16.085683 -5.125801 0.000000
27.264827 1.771663 0.000000
26.603259 -5.135869 0.000000
11.167312 -5.110583 0.000000
47.098209 5.014056 0.000000
28.246238 0.855086 0.000000
22.635217 -0.845846 0.000000
41.205892 2.568999 0.000000
2.611065 3.401355 0.000000
11.410187 1.506355 0.000000
40.751617 -0.040409 0.000000
8.234586 -2.078106 0.000000
21.095892 0.019261 0.000000
20.220364 4.277784 0.000000
29.915308 -0.086731 0.000000
7.004002 0.847089 0.000000
35.510867 -5.167328 0.000000
28.186165 1.705223 0.000000
26.484187 5.130791 0.000000
1.792529 5.146528 0.000000
24.825721 -5.195389 0.000000
34.222296 2.676156 0.000000
34.550570 -3.632410 0.000000
38.905418 0.749399 0.000000
23.793740 2.574836 0.000000
22.714451 5.130260 0.000000
28.319390 5.102165 0.000000
3.622075 -2.577229 0.000000
14.929960 0.802144 0.000000
38.792968 4.259589 0.000000
6.990808 -0.786564 0.000000
0.875540 -4.091315 0.000000
0.890377 5.024506 0.000000
24.091315 -4.296856 0.000000
9.662931 0.447410 0.000000
15.092260 -5.114390 0.000000
16.712473 3.421146 0.000000
23.383313 -3.433470 0.000000
17.578706 -4.290130 0.000000
6.202098 -1.747917 0.000000
1.740686 3.358455 0.000000
25.036221 4.248669 0.000000
29.837748 -0.944855 0.000000
10.546787 -0.101379 0.000000
35.477320 -3.468263 0.000000
45.247542 4.994950 0.000000
18.023499 5.145176 0.000000
26.428150 2.113296 0.000000
21.079437 -5.131725 0.000000
35.997817 -0.947455 0.000000
34.477242 -1.863392 0.000000
23.930190 -5.151544 0.000000
43.469238 -1.397752 0.000000
23.120067 4.274884 0.000000
21.210048 3.438931 0.000000
[...]
POINT_DATA 800
SCALARS P float 1
LOOKUP_TABLE default
981.363548
-7.692325
-5.897973
-1005.938812
991.590098
946.356161
949.441657
922.941543
908.519570
892.783161
874.516082
855.579445
835.595168
818.990316
794.636160
787.714261
764.997212
748.989743
729.503537
713.665332
696.261533
677.157628
658.127868
643.946789
624.617311
603.159848
591.418241
570.337316
550.103466
539.392565
511.678957
505.177571
471.006030
458.583317
443.912598
425.489050
408.306885
392.968678
375.264627
354.998936
335.164622
322.008967
301.710134
277.064429
259.902080
247.900760
237.419541
206.109806
196.355050
179.624804
161.407881
138.796429
125.955740
108.734706
85.552283
70.757832
59.209814
25.903338
25.012030
11.429804
-6.685078
12.067732
-1.680883
2.410702
7.821119
-4.406908
7.212146
-5.665333
7.081960
-1.747691
-1.947900
5.023168
-13.062292
-43.431858
-55.452394
-70.982626
-92.755333
-109.816250
-124.042279
-145.045639
-162.313332
-183.103593
-197.127440
-212.613069
-235.802133
-250.924857
-268.163402
-287.597034
-305.335295
-324.393083
-333.942391
-366.016950
-365.443971
-406.609881
-401.213231
-443.886060
-445.613382
-471.263238
-485.311785
-495.367033
-523.176906
-537.890620
-549.179702
-576.649819
-589.034582
-607.547805
-625.677545
-645.007384
-661.308443
-677.685180
-699.040899
-715.088301
-730.541669
-753.225258
-769.316302
-782.314192
-808.705598
-819.471942
-839.977756
-859.290390
-872.797967
-894.301254
-915.386705
-923.805198
-950.231548
-967.181969
-981.064950
-844.738779
-726.416755
-565.290539
-422.850645
-292.240636
-137.928435
-2.297027
153.966734
271.352591
437.776399
574.803487
701.854435
875.201186
-11.950555
-3.015441
8.492561
-21.092133
-481.808435
470.112498
-155.242943
-56.409690
-150.491233
-3.419510
-433.691754
-676.650884
494.936288
-50.991528
-49.433252
-71.344707
115.943183
-77.079787
320.807367
-254.032099
113.277227
586.557455
179.610900
-294.428452
248.249653
-87.750160
-23.548261
568.604273
56.882306
-83.989414
-245.657476
-80.991409
-86.628705
-637.295032
230.655867
404.209237
-498.012612
392.249113
-245.760056
161.142349
12.682985
-77.115135
-43.581762
94.760543
-38.942736
88.136956
172.002691
322.120473
-190.304087
-107.806379
54.888160
-300.333468
55.084170
-767.587234
385.885803
-35.761655
390.300886
-4.949529
108.987977
642.642654
453.528110
56.986524
1.629851
461.338583
-86.237205
-152.404965
-189.576606
207.556276
-89.642195
68.384377
51.964103
-459.797117
-293.351165
-273.757196
-28.577873
-104.198652
-70.082786
82.679287
-8.768537
-29.703751
551.358919
19.146334
83.653600
-286.373567
0.378945
-380.830086
-126.422957
43.538252
-6.809962
851.034832
-285.565419
-41.680597
-503.170194
-2.877316
-805.317771
564.642865
1.686858
1.368314
106.133026
-469.473359
-384.551645
1.587279
-313.996702
-357.342678
182.627924
-33.635237
-76.099451
509.121956
-278.983493
55.617246
42.021453
-191.674325
39.594898
196.936369
-226.487958
-24.147114
-47.616151
219.531292
142.064000
-152.024642
-319.986169
243.225097
215.760346
284.072563
-21.490541
-104.426413
-137.555119
704.103770
-318.436140
-231.122366
-138.532527
57.042995
71.730444
66.766381
17.938646
192.958955
-422.903814
-84.622194
-351.355856
-579.270783
273.949472
31.400778
-3.519277
92.977468
-164.845701
-0.564764
-46.932204
-4.559403
-65.194654
388.691322
286.349825
277.669461
-26.776471
650.420753
-155.863555
571.232111
-136.863143
382.287289
655.736594
-21.313258
-49.943604
82.806100
-56.781278
-531.121507
-192.437046
-1.897419
304.205720
4.454486
-416.007083
6.690620
-116.255965
230.295801
-113.550311
-385.682487
-820.739582
431.275840
-136.547452
193.271442
-21.773841
-216.650904
-444.548808
-361.919880
395.735689
-90.036369
-134.801812
122.673809
682.291115
-827.757563
366.255412
-59.413686
584.485981
-372.311332
299.218342
454.647196
264.344561
-541.047024
-340.254528
61.378478
10.402657
142.701692
-49.756327
-534.170058
-139.933291
484.876193
44.167847
91.046537
424.169018
24.926131
-376.540935
-318.059216
-102.019032
349.608330
227.461535
-263.855654
-110.399630
497.444843
155.517163
-83.736148
-14.186730
134.575222
-212.466635
-260.110330
270.208299
473.085379
-119.562955
222.229897
503.369469
-655.803131
-41.164802
-529.268566
169.359571
133.711500
32.568564
658.276911
-1.321653
-81.151710
669.968891
-756.356013
803.079393
-98.553043
-62.566847
220.321375
-12.241595
517.719264
638.496404
170.816214
222.223477
-127.587207
-104.514462
90.271693
-650.643989
-206.292757
-682.607293
116.858110
-105.319446
-121.188471
179.796745
189.198055
-70.061948
110.840370
358.777249
-212.552795
-736.687532
-160.108192
-265.594047
-256.700209
-708.857641
-115.471691
13.164827
536.774817
656.344557
51.944548
95.465618
-28.463597
-93.444369
457.685884
7.691914
-240.367587
30.412013
36.880301
-182.224794
333.459835
134.713873
-249.294715
14.786731
778.356502
619.586727
-120.630309
242.099610
-5.025904
-131.375409
331.051144
509.451107
136.922063
252.322682
3.670576
-1.777505
122.258587
3.211694
-501.762404
203.387395
-7.102539
-255.792582
1.019654
239.643124
317.361854
134.173499
363.095811
189.997663
-654.664994
132.990918
299.438089
-180.032606
96.591972
198.058195
136.455882
-315.423173
255.840726
87.961867
16.682660
177.161866
-43.745202
537.707568
494.823786
-718.941679
485.345003
36.390110
7.709178
-113.166993
314.844429
-157.130400
137.063045
-193.756876
681.141703
-502.226483
8.033051
-38.209426
12.439124
-476.079229
-185.822333
142.910641
44.642148
422.389456
-542.003765
58.963807
-81.021278
344.497972
85.044784
-28.564893
247.953403
477.624273
-227.115840
-15.013121
-238.574254
-625.499173
-23.232236
237.146283
122.194654
-421.493729
-425.589409
-405.847962
-793.161911
323.324678
28.614656
151.460854
-580.920322
-394.653603
409.408580
-172.317274
426.555216
-9.533322
23.093149
-319.235034
-520.570979
-248.409837
63.848464
-58.614659
-207.124092
-143.537109
540.004529
117.942098
386.976120
436.412284
518.958306
-164.753301
386.987779
88.658241
-18.637812
-264.138614
-565.190362
-435.369562
363.732481
72.276587
185.025781
257.060939
71.511625
-327.766647
113.854306
105.317818
74.057316
13.617404
31.548763
-218.275660
9.639920
-320.627743
32.107865
-98.086559
25.967558
188.126234
-328.268168
48.984123
-151.126396
-64.563430
117.808419
-543.808113
4.791828
379.650370
-48.675168
15.537644
-68.459496
-230.795268
-68.246352
-240.312703
39.136758
19.785956
-175.544099
-593.064245
5.243321
273.890627
-334.776223
-141.608808
-590.927576
-639.897610
52.923259
76.501736
-125.170406
8.689453
184.114743
-4.969503
105.004310
-89.915037
224.108566
-115.498609
170.738824
99.160124
-9.274165
133.846480
161.178988
-161.062700
-309.084726
290.517129
-71.475692
56.884981
30.411594
178.749368
8.501761
51.119230
-18.111315
-261.423813
-473.327402
-226.575765
-352.006190
72.744070
-6.580380
-529.382618
-18.527834
-70.253087
71.301327
-21.434972
-97.516718
356.073920
-241.409102
192.409534
6.440478
161.007260
-5.541755
6.870557
2.964872
141.624297
-341.030521
113.791407
-237.894590
188.444298
-331.866332
452.281363
-478.921412
297.458757
300.750460
-206.900808
-382.539864
116.139486
80.570622
301.663439
708.417704
761.554175
-276.823875
312.580242
75.578352
173.680646
350.776431
-206.836397
-50.441654
-607.998037
153.377946
383.884750
160.282254
-226.956672
-1.947271
121.752469
-168.949586
401.933127
134.867312
-76.206477
-674.048396
307.380855
-34.106447
257.283638
-349.680143
-276.881670
-295.695769
-229.908877
515.375823
-113.314406
97.464373
-46.551811
-202.547966
13.570527
147.148310
0.613182
-5.076511
0.315508
235.348639
-386.357948
-199.814776
-498.548019
350.975513
-349.778808
-49.536407
-127.856490
-494.244340
-136.317679
107.145150
285.521682
217.801998
110.782920
48.907473
582.336568
11.649101
-515.779383
-6.039300
-172.902273
324.324413
95.829521
-296.984002
-112.415848
23.780196
-390.151111
-135.681001
-33.124072
113.976501
-608.812518
-53.532360
-44.946602
-441.037491
-150.211553
2.428035
353.671291
209.715787
-177.000695
48.915226
-159.897483
179.130293
253.391954
-380.235542
76.951046
-105.488267
-248.829962
-188.077516
-364.238551
-398.958752
68.874817
361.082613
65.273311
-568.460369
-76.094902
-39.801506
-7.200681
-194.637347
-85.970862
-14.316194
4.616415
407.035331
-549.283299
178.899637
-110.731631
-65.409768
331.493852
-133.795461
-482.650508
494.546328
308.837883
743.426048
725.621112
-3.457754
-419.081612
8.218431
181.464324
542.130872
-81.439389
254.564612
-332.015039
-169.195856
-85.103806
229.114792
-365.307659
-261.382692
432.689636
-688.033733
-48.447169
-385.703185
605.859828
118.222492
356.616110
-221.523807
-220.961483
90.951112
-443.248064
369.362382
604.115412
-250.843515
-91.140131
272.968565
-456.363060
58.633466
-255.439428
-181.069586
3.031816
261.465782
-84.922972
72.412645
-648.962111
622.840932
-308.865824
-102.130250
-614.079322
194.786245
224.335207
-17.024728
814.806673
269.389247
-187.195466
-6.256687
-96.707396
-149.885498
792.260672
19.823391
71.637988
-358.722086
-391.634500
-276.285473
