# vtk DataFile Version 2.0
patchtest_tri3_mix
ASCII
DATASET POLYDATA
POINTS 60 float
0.000000 0.000000 0.000000
1.000000 0.000000 0.000000
1.000000 1.000000 0.000000
0.000000 1.000000 0.000000
0.142857 0.000000 0.000000
0.285714 0.000000 0.000000
0.428571 0.000000 0.000000
0.571429 0.000000 0.000000
0.714286 0.000000 0.000000
0.857143 0.000000 0.000000
1.000000 0.142857 0.000000
1.000000 0.285714 0.000000
1.000000 0.428571 0.000000
1.000000 0.571429 0.000000
1.000000 0.714286 0.000000
1.000000 0.857143 0.000000
0.857143 1.000000 0.000000
0.714286 1.000000 0.000000
0.571429 1.000000 0.000000
0.428571 1.000000 0.000000
0.285714 1.000000 0.000000
0.142857 1.000000 0.000000
0.000000 0.857143 0.000000
0.000000 0.714286 0.000000
0.000000 0.571429 0.000000
0.000000 0.428571 0.000000
0.000000 0.285714 0.000000
0.000000 0.142857 0.000000
0.809671 0.277844 0.000000
0.564702 0.424553 0.000000
0.857226 0.139470 0.000000
0.145043 0.294113 0.000000
0.302928 0.286951 0.000000
0.121371 0.722354 0.000000
0.658055 0.565072 0.000000
0.468362 0.283685 0.000000
0.172779 0.859976 0.000000
0.699748 0.142379 0.000000
0.873026 0.414126 0.000000
0.266589 0.717415 0.000000
0.722787 0.420783 0.000000
0.339954 0.856878 0.000000
0.258496 0.434554 0.000000
0.408152 0.428006 0.000000
0.732255 0.707464 0.000000
0.577892 0.710088 0.000000
0.876219 0.705535 0.000000
0.828859 0.560020 0.000000
0.165085 0.580970 0.000000
0.420928 0.712951 0.000000
0.635555 0.282078 0.000000
0.663941 0.853632 0.000000
0.830934 0.852209 0.000000
0.535283 0.143446 0.000000
0.366848 0.145201 0.000000
0.501799 0.853768 0.000000
0.494292 0.568927 0.000000
0.190343 0.147556 0.000000
0.122520 0.439864 0.000000
0.331381 0.573444 0.000000
POLYGONS 90 360
3 0 4 27
3 31 27 57
3 25 26 58
3 58 31 42
3 31 58 26
3 26 27 31
3 25 58 24
3 27 4 57
3 57 5 54
3 5 57 4
3 35 54 53
3 6 54 5
3 57 54 32
3 42 32 43
3 42 31 32
3 56 43 29
3 35 43 32
3 32 54 35
3 42 43 59
3 54 6 53
3 32 31 57
3 58 42 48
3 23 24 33
3 24 58 48
3 33 24 48
3 3 22 21
3 22 36 21
3 33 36 22
3 22 23 33
3 33 48 39
3 39 59 49
3 39 36 33
3 55 41 49
3 56 49 59
3 42 59 48
3 39 49 41
3 36 20 21
3 20 36 41
3 41 19 20
3 55 19 41
3 36 39 41
3 49 56 45
3 39 48 59
3 43 56 59
3 43 35 29
3 7 8 37
3 28 50 37
3 7 37 53
3 56 29 34
3 35 50 29
3 50 40 29
3 28 40 50
3 53 37 50
3 34 29 40
3 37 8 30
3 7 53 6
3 30 28 37
3 30 9 1
3 1 10 30
3 30 10 11
3 28 38 40
3 38 28 11
3 11 12 38
3 28 30 11
3 40 38 47
3 30 8 9
3 12 13 38
3 45 34 44
3 45 56 34
3 44 34 47
3 45 44 51
3 55 18 19
3 18 55 51
3 51 17 18
3 52 17 51
3 55 45 51
3 51 44 52
3 55 49 45
3 46 52 44
3 46 47 13
3 13 14 46
3 47 38 13
3 46 14 15
3 52 16 17
3 16 52 15
3 15 2 16
3 52 46 15
3 46 44 47
3 34 40 47
3 35 53 50
POINT_DATA 60
SCALARS P float 1
LOOKUP_TABLE default
3083.932093
-19.227526
-31.468688
-3051.460045
2531.622441
2157.643866
1694.057173
1262.494013
833.918671
392.697011
37.511970
13.382444
16.980346
-5.491868
-49.051906
-6.462175
-454.310249
-921.246637
-1335.220895
-1809.574220
-2183.048561
-2765.710614
-1871.085491
-891.102492
-461.485653
713.965579
1292.136288
2071.988153
244.214404
201.239760
310.128266
1012.892791
887.054567
-1324.327099
-128.417454
676.897158
-1685.148188
651.104133
62.354687
-888.532545
139.997851
-1350.203549
326.122179
255.512548
-336.009332
-523.480142
-131.578563
-53.619721
-374.813733
-743.005778
470.765075
-670.062937
-308.535588
989.831782
1320.084515
-985.347736
-192.369296
1670.617244
213.918221
-298.824881
