# vtk DataFile Version 2.0
patchtest_tri3_mix
ASCII
DATASET POLYDATA
POINTS 85 float
0.000000 -6.000000 0.000000
48.000000 -6.000000 0.000000
48.000000 6.000000 0.000000
0.000000 6.000000 0.000000
3.000000 -6.000000 0.000000
6.000000 -6.000000 0.000000
9.000000 -6.000000 0.000000
12.000000 -6.000000 0.000000
15.000000 -6.000000 0.000000
18.000000 -6.000000 0.000000
21.000000 -6.000000 0.000000
24.000000 -6.000000 0.000000
27.000000 -6.000000 0.000000
30.000000 -6.000000 0.000000
33.000000 -6.000000 0.000000
36.000000 -6.000000 0.000000
39.000000 -6.000000 0.000000
42.000000 -6.000000 0.000000
45.000000 -6.000000 0.000000
48.000000 -3.000000 0.000000
48.000000 -0.000000 0.000000
48.000000 3.000000 0.000000
45.000000 6.000000 0.000000
42.000000 6.000000 0.000000
39.000000 6.000000 0.000000
36.000000 6.000000 0.000000
33.000000 6.000000 0.000000
30.000000 6.000000 0.000000
27.000000 6.000000 0.000000
24.000000 6.000000 0.000000
21.000000 6.000000 0.000000
18.000000 6.000000 0.000000
15.000000 6.000000 0.000000
12.000000 6.000000 0.000000
9.000000 6.000000 0.000000
6.000000 6.000000 0.000000
3.000000 6.000000 0.000000
0.000000 3.000000 0.000000
0.000000 0.000000 0.000000
0.000000 -3.000000 0.000000
34.467862 -3.033133 0.000000
35.971018 0.026340 0.000000
28.489989 -3.047697 0.000000
8.989076 0.051159 0.000000
2.333310 -3.156199 0.000000
28.741995 2.950171 0.000000
32.990159 -0.132092 0.000000
22.712540 3.358726 0.000000
7.707840 -2.967036 0.000000
10.593383 -2.979401 0.000000
2.932241 -0.149256 0.000000
21.021195 1.272707 0.000000
7.301692 3.030364 0.000000
21.018078 -1.232122 0.000000
38.984346 0.063451 0.000000
45.662099 -3.138734 0.000000
13.532107 -2.987603 0.000000
10.407293 3.017142 0.000000
43.885702 2.966834 0.000000
22.651719 -3.363346 0.000000
12.013085 0.025025 0.000000
4.932289 -2.966627 0.000000
25.535896 -2.963092 0.000000
18.142151 0.014414 0.000000
4.054831 2.954379 0.000000
37.401926 -2.974881 0.000000
19.359453 3.368870 0.000000
26.980834 -0.000822 0.000000
29.970857 -0.161902 0.000000
13.448115 3.006702 0.000000
25.661036 2.982770 0.000000
16.446524 2.979923 0.000000
34.341821 2.970698 0.000000
40.284696 -2.959822 0.000000
43.061301 -2.958784 0.000000
15.049052 0.013333 0.000000
19.365521 -3.359445 0.000000
37.483110 3.021350 0.000000
40.631026 3.035465 0.000000
5.962525 0.080499 0.000000
16.481986 -2.962045 0.000000
42.013143 0.089002 0.000000
23.897534 0.020234 0.000000
45.053679 -0.125271 0.000000
31.484642 -3.073109 0.000000
POLYGONS 128 512
3 0 44 39
3 44 0 4
3 44 4 61
3 61 4 5
3 48 5 6
3 39 44 38
3 79 50 61
3 38 44 50
3 50 44 61
3 48 79 61
3 5 48 61
3 37 38 50
3 6 49 48
3 56 7 8
3 76 9 10
3 59 10 11
3 8 9 80
3 10 59 76
3 60 49 56
3 49 7 56
3 75 56 80
3 48 49 43
3 63 80 76
3 80 56 8
3 53 76 59
3 75 80 63
3 76 80 9
3 53 63 76
3 51 53 82
3 7 49 6
3 60 56 75
3 36 37 64
3 37 50 64
3 52 79 43
3 43 79 48
3 57 43 60
3 64 79 52
3 50 79 64
3 43 57 52
3 3 37 36
3 35 52 34
3 35 36 64
3 34 52 57
3 52 35 64
3 57 33 34
3 69 33 57
3 60 75 69
3 66 71 63
3 69 75 71
3 51 63 53
3 66 63 51
3 75 63 71
3 69 71 32
3 33 69 32
3 32 71 31
3 66 47 30
3 47 66 51
3 30 47 29
3 66 30 31
3 66 31 71
3 47 51 82
3 69 57 60
3 43 49 60
3 53 59 82
3 62 11 12
3 13 14 84
3 84 14 40
3 12 13 42
3 84 42 13
3 67 62 42
3 42 62 12
3 84 46 68
3 68 42 84
3 41 46 40
3 68 46 45
3 40 46 84
3 67 42 68
3 14 15 40
3 62 82 59
3 15 16 65
3 17 18 74
3 18 1 55
3 16 17 73
3 17 74 73
3 73 65 16
3 81 73 74
3 54 65 73
3 20 83 55
3 55 83 74
3 19 55 1
3 20 55 19
3 55 74 18
3 40 65 41
3 15 65 40
3 83 81 74
3 70 82 67
3 67 82 62
3 46 72 45
3 45 67 68
3 25 72 77
3 45 72 26
3 72 46 41
3 70 67 45
3 29 70 28
3 29 47 70
3 70 45 28
3 28 45 27
3 27 45 26
3 72 25 26
3 72 41 77
3 70 47 82
3 78 54 81
3 54 73 81
3 83 21 58
3 58 81 83
3 58 21 22
3 41 65 54
3 78 81 58
3 77 78 24
3 78 77 54
3 24 78 23
3 77 24 25
3 23 78 58
3 23 58 22
3 21 2 22
3 54 77 41
3 20 21 83
3 62 59 11
POINT_DATA 85
SCALARS P float 1
LOOKUP_TABLE default
994.931314
-14.733309
-28.832586
-788.772497
1006.683479
829.234167
816.282092
723.770910
661.138703
625.513187
601.971388
525.102766
415.565084
349.169991
295.081112
233.596501
166.709173
104.377155
42.807388
53.264178
-25.576177
16.095942
-70.557565
-150.674144
-203.083292
-324.762532
-211.837806
-537.098975
-418.270196
-594.520252
-699.972637
-717.632520
-728.455923
-788.258150
-873.352875
-881.575753
-1089.843164
-212.606698
198.711662
716.675099
121.010724
-29.283801
194.179131
-25.525310
15.463913
-64.311035
33.939854
-60.312275
274.788333
374.137530
-69.792864
-326.069292
-297.518116
272.185938
-16.863310
13.291236
303.120050
-289.334784
-13.588172
169.872076
-33.558658
585.252592
217.503221
-29.822980
-356.133969
118.851027
-105.812565
-0.511283
-62.671741
-248.186999
-215.731529
-247.957089
-124.946640
82.560040
72.717810
-19.439311
219.372044
-45.145020
-43.109876
-23.473677
308.980467
-19.747958
-18.931004
-5.663812
179.394182
