# vtk DataFile Version 2.0
patchtest_tri3_mix
ASCII
DATASET POLYDATA
POINTS 1105 float
0.000000 -6.000000 0.000000
48.000000 -6.000000 0.000000
48.000000 6.000000 0.000000
0.000000 6.000000 0.000000
0.750000 -6.000000 0.000000
1.500000 -6.000000 0.000000
2.250000 -6.000000 0.000000
3.000000 -6.000000 0.000000
3.750000 -6.000000 0.000000
4.500000 -6.000000 0.000000
5.250000 -6.000000 0.000000
6.000000 -6.000000 0.000000
6.750000 -6.000000 0.000000
7.500000 -6.000000 0.000000
8.250000 -6.000000 0.000000
9.000000 -6.000000 0.000000
9.750000 -6.000000 0.000000
10.500000 -6.000000 0.000000
11.250000 -6.000000 0.000000
12.000000 -6.000000 0.000000
12.750000 -6.000000 0.000000
13.500000 -6.000000 0.000000
14.250000 -6.000000 0.000000
15.000000 -6.000000 0.000000
15.750000 -6.000000 0.000000
16.500000 -6.000000 0.000000
17.250000 -6.000000 0.000000
18.000000 -6.000000 0.000000
18.750000 -6.000000 0.000000
19.500000 -6.000000 0.000000
20.250000 -6.000000 0.000000
21.000000 -6.000000 0.000000
21.750000 -6.000000 0.000000
22.500000 -6.000000 0.000000
23.250000 -6.000000 0.000000
24.000000 -6.000000 0.000000
24.750000 -6.000000 0.000000
25.500000 -6.000000 0.000000
26.250000 -6.000000 0.000000
27.000000 -6.000000 0.000000
27.750000 -6.000000 0.000000
28.500000 -6.000000 0.000000
29.250000 -6.000000 0.000000
30.000000 -6.000000 0.000000
30.750000 -6.000000 0.000000
31.500000 -6.000000 0.000000
32.250000 -6.000000 0.000000
33.000000 -6.000000 0.000000
33.750000 -6.000000 0.000000
34.500000 -6.000000 0.000000
35.250000 -6.000000 0.000000
36.000000 -6.000000 0.000000
36.750000 -6.000000 0.000000
37.500000 -6.000000 0.000000
38.250000 -6.000000 0.000000
39.000000 -6.000000 0.000000
39.750000 -6.000000 0.000000
40.500000 -6.000000 0.000000
41.250000 -6.000000 0.000000
42.000000 -6.000000 0.000000
42.750000 -6.000000 0.000000
43.500000 -6.000000 0.000000
44.250000 -6.000000 0.000000
45.000000 -6.000000 0.000000
45.750000 -6.000000 0.000000
46.500000 -6.000000 0.000000
47.250000 -6.000000 0.000000
48.000000 -5.250000 0.000000
48.000000 -4.500000 0.000000
48.000000 -3.750000 0.000000
48.000000 -3.000000 0.000000
48.000000 -2.250000 0.000000
48.000000 -1.500000 0.000000
48.000000 -0.750000 0.000000
48.000000 -0.000000 0.000000
48.000000 0.750000 0.000000
48.000000 1.500000 0.000000
48.000000 2.250000 0.000000
48.000000 3.000000 0.000000
48.000000 3.750000 0.000000
48.000000 4.500000 0.000000
48.000000 5.250000 0.000000
47.250000 6.000000 0.000000
46.500000 6.000000 0.000000
45.750000 6.000000 0.000000
45.000000 6.000000 0.000000
44.250000 6.000000 0.000000
43.500000 6.000000 0.000000
42.750000 6.000000 0.000000
42.000000 6.000000 0.000000
41.250000 6.000000 0.000000
40.500000 6.000000 0.000000
39.750000 6.000000 0.000000
39.000000 6.000000 0.000000
38.250000 6.000000 0.000000
37.500000 6.000000 0.000000
36.750000 6.000000 0.000000
36.000000 6.000000 0.000000
35.250000 6.000000 0.000000
34.500000 6.000000 0.000000
33.750000 6.000000 0.000000
33.000000 6.000000 0.000000
32.250000 6.000000 0.000000
31.500000 6.000000 0.000000
30.750000 6.000000 0.000000
30.000000 6.000000 0.000000
29.250000 6.000000 0.000000
28.500000 6.000000 0.000000
27.750000 6.000000 0.000000
27.000000 6.000000 0.000000
26.250000 6.000000 0.000000
25.500000 6.000000 0.000000
24.750000 6.000000 0.000000
24.000000 6.000000 0.000000
23.250000 6.000000 0.000000
22.500000 6.000000 0.000000
21.750000 6.000000 0.000000
21.000000 6.000000 0.000000
20.250000 6.000000 0.000000
19.500000 6.000000 0.000000
18.750000 6.000000 0.000000
18.000000 6.000000 0.000000
17.250000 6.000000 0.000000
16.500000 6.000000 0.000000
15.750000 6.000000 0.000000
15.000000 6.000000 0.000000
14.250000 6.000000 0.000000
13.500000 6.000000 0.000000
12.750000 6.000000 0.000000
12.000000 6.000000 0.000000
11.250000 6.000000 0.000000
10.500000 6.000000 0.000000
9.750000 6.000000 0.000000
9.000000 6.000000 0.000000
8.250000 6.000000 0.000000
7.500000 6.000000 0.000000
6.750000 6.000000 0.000000
6.000000 6.000000 0.000000
5.250000 6.000000 0.000000
4.500000 6.000000 0.000000
3.750000 6.000000 0.000000
3.000000 6.000000 0.000000
2.250000 6.000000 0.000000
1.500000 6.000000 0.000000
0.750000 6.000000 0.000000
0.000000 5.250000 0.000000
0.000000 4.500000 0.000000
0.000000 3.750000 0.000000
0.000000 3.000000 0.000000
0.000000 2.250000 0.000000
0.000000 1.500000 0.000000
0.000000 0.750000 0.000000
0.000000 0.000000 0.000000
0.000000 -0.750000 0.000000
0.000000 -1.500000 0.000000
0.000000 -2.250000 0.000000
0.000000 -3.000000 0.000000
0.000000 -3.750000 0.000000
0.000000 -4.500000 0.000000
0.000000 -5.250000 0.000000
42.951075 -4.469141 0.000000
15.015271 2.399392 0.000000
34.027304 -2.589998 0.000000
18.230137 -2.380728 0.000000
43.405247 -2.933387 0.000000
12.815036 2.794699 0.000000
33.372476 0.528035 0.000000
9.927063 -4.484345 0.000000
15.055939 0.627706 0.000000
6.386710 4.015624 0.000000
36.910365 3.034095 0.000000
38.800718 -2.875329 0.000000
15.826978 5.313757 0.000000
28.981665 0.138766 0.000000
30.089866 2.232372 0.000000
0.768787 3.713590 0.000000
27.849011 2.910885 0.000000
31.867169 5.197391 0.000000
23.628319 -4.439883 0.000000
19.587307 -1.296439 0.000000
33.930890 -1.545342 0.000000
45.715522 0.257192 0.000000
27.016140 5.193211 0.000000
5.718712 2.186473 0.000000
7.278624 2.746190 0.000000
21.490477 -0.383396 0.000000
14.816675 -4.460855 0.000000
44.932904 2.057932 0.000000
19.273422 -2.281946 0.000000
16.249651 1.672892 0.000000
21.279495 -3.713677 0.000000
46.487995 -5.219821 0.000000
41.071955 1.553407 0.000000
35.363571 -3.105667 0.000000
9.811717 1.240373 0.000000
2.345505 2.179390 0.000000
5.379633 2.821030 0.000000
33.812095 2.948551 0.000000
33.766004 -5.229996 0.000000
2.695208 -0.363947 0.000000
47.239784 0.097095 0.000000
15.805268 -3.089092 0.000000
38.883548 -1.348025 0.000000
9.634014 4.458439 0.000000
28.286789 -3.697211 0.000000
34.541061 -1.860945 0.000000
5.635060 -0.458056 0.000000
30.655336 -4.472111 0.000000
41.881276 -1.404504 0.000000
13.407153 -0.310764 0.000000
19.968718 -2.326811 0.000000
21.662604 2.091780 0.000000
32.993944 -5.249345 0.000000
21.983629 -1.208098 0.000000
5.528928 3.899076 0.000000
11.488222 -3.704681 0.000000
25.524933 -0.320093 0.000000
41.441125 5.222623 0.000000
18.033644 -5.292927 0.000000
25.785068 4.035283 0.000000
30.554832 -2.956826 0.000000
2.290008 -2.246076 0.000000
32.394525 -2.082785 0.000000
25.966911 -3.775650 0.000000
46.488997 3.350759 0.000000
8.474834 -3.092670 0.000000
6.687112 -5.254311 0.000000
37.469443 -0.722317 0.000000
2.937147 5.272053 0.000000
42.032538 -4.466576 0.000000
32.967672 -0.311297 0.000000
10.708216 -2.271721 0.000000
20.545732 0.384084 0.000000
45.579580 -4.432435 0.000000
19.517650 -4.605721 0.000000
46.471691 -2.037789 0.000000
22.774683 -0.574189 0.000000
13.399119 -5.244516 0.000000
35.826223 -0.889585 0.000000
18.427282 -2.669742 0.000000
13.079319 1.620361 0.000000
18.567548 -3.426235 0.000000
16.481717 3.376015 0.000000
10.782465 -0.630102 0.000000
4.655153 -3.686770 0.000000
13.007605 -3.707158 0.000000
3.079129 -1.483589 0.000000
35.203371 5.235674 0.000000
38.705875 -3.645091 0.000000
46.467559 -1.193622 0.000000
4.090448 -5.226106 0.000000
6.236188 -2.534798 0.000000
41.871001 0.854800 0.000000
31.375006 -0.158172 0.000000
38.330289 -5.189982 0.000000
27.796989 4.553504 0.000000
21.745493 -5.241380 0.000000
11.211920 4.272704 0.000000
18.088687 0.290479 0.000000
5.072226 0.384967 0.000000
38.368137 4.472498 0.000000
12.759995 4.479820 0.000000
32.702254 0.423349 0.000000
22.584934 -5.239686 0.000000
9.113618 -5.242968 0.000000
41.076533 0.854168 0.000000
16.148145 0.568227 0.000000
13.026669 -4.510863 0.000000
11.731330 4.730519 0.000000
33.762356 -4.473444 0.000000
41.358743 3.763940 0.000000
28.561414 5.211318 0.000000
30.320975 -0.843841 0.000000
28.196116 -2.138534 0.000000
34.000863 1.382017 0.000000
13.695496 1.220416 0.000000
6.807723 4.465353 0.000000
24.426528 -0.375645 0.000000
39.298253 2.257634 0.000000
2.956481 4.426306 0.000000
26.179762 0.142096 0.000000
23.346307 -2.027945 0.000000
4.526596 -2.152410 0.000000
44.957630 -3.650225 0.000000
16.133000 -5.230823 0.000000
25.480090 3.373881 0.000000
5.935903 4.593426 0.000000
36.893290 3.715447 0.000000
1.533766 -2.280081 0.000000
31.876620 1.784556 0.000000
33.838951 -0.997046 0.000000
27.162844 3.263808 0.000000
28.367520 2.263020 0.000000
41.125560 -1.402723 0.000000
29.007442 -2.949841 0.000000
46.478275 0.557959 0.000000
18.684338 0.699332 0.000000
8.652569 2.124455 0.000000
5.365472 -3.702020 0.000000
9.932972 -5.227828 0.000000
14.000116 -1.719248 0.000000
9.977168 0.118111 0.000000
26.150613 3.000027 0.000000
18.030097 3.789360 0.000000
34.319773 -0.219604 0.000000
1.569775 -5.243497 0.000000
34.538782 -4.462805 0.000000
3.816676 -2.282059 0.000000
4.142275 2.607707 0.000000
20.001357 -1.602313 0.000000
14.047171 -4.765977 0.000000
25.413808 1.640933 0.000000
19.099258 -0.957966 0.000000
36.592222 -2.348153 0.000000
47.239024 3.663483 0.000000
27.777237 5.253661 0.000000
39.232643 2.883474 0.000000
30.610872 -3.720720 0.000000
39.608177 -2.154155 0.000000
16.923451 3.990471 0.000000
37.539972 -5.281226 0.000000
20.478012 -4.479609 0.000000
17.546032 -0.157411 0.000000
15.124493 4.047799 0.000000
39.149078 4.554413 0.000000
12.522792 1.128394 0.000000
0.770321 -4.425069 0.000000
47.228487 4.463999 0.000000
2.313429 -2.999018 0.000000
4.208901 -1.199661 0.000000
12.276908 -2.170823 0.000000
19.565316 -3.387222 0.000000
25.179979 -4.612084 0.000000
18.004882 5.235067 0.000000
29.835490 -3.716908 0.000000
36.299666 2.283957 0.000000
27.984972 1.554668 0.000000
13.013038 0.647451 0.000000
18.774162 5.241766 0.000000
24.729464 1.991114 0.000000
45.709331 -0.537264 0.000000
10.770564 -5.227208 0.000000
33.209114 2.136317 0.000000
14.425709 -3.785220 0.000000
39.530200 0.761673 0.000000
16.539419 5.142982 0.000000
44.954423 4.448476 0.000000
42.309434 5.242735 0.000000
16.680118 2.327457 0.000000
28.548095 0.960778 0.000000
[...]
POINT_DATA 1105
SCALARS P float 1
LOOKUP_TABLE default
1047.369412
-1.680236
-5.978139
-966.622875
993.863942
1004.790420
970.895140
964.640896
940.605118
928.132593
906.922716
887.940277
884.027191
862.809333
847.236328
831.452185
814.233072
798.185124
781.275267
764.392171
749.583997
732.985397
726.432187
706.550414
684.268516
672.234215
654.829225
644.331651
631.580679
610.630584
589.075278
574.790071
556.834232
541.561872
525.138735
506.554384
493.052628
478.413842
461.501836
444.830328
428.347718
411.955303
396.076742
380.188789
364.170993
347.925056
332.240131
316.876098
300.335330
283.906130
268.060426
251.846362
236.178648
220.687105
204.160315
187.822800
171.829448
155.737960
139.698798
123.741692
107.808377
91.845698
75.920715
59.991267
44.409512
28.889707
12.143753
8.381217
1.329075
5.583326
2.807840
3.007599
1.747050
1.124073
-0.130708
-0.482861
-2.227564
-1.670297
-4.541007
-2.404206
-6.460347
-1.188955
-17.304360
-35.964075
-51.724616
-68.625026
-84.710732
-102.503035
-117.806589
-133.188968
-148.784457
-165.135962
-182.272558
-200.015503
-213.861014
-229.455544
-245.371868
-261.161030
-277.865593
-293.578563
-309.744679
-325.536725
-340.227909
-360.121203
-385.004590
-389.144051
-410.352086
-417.403961
-446.487366
-447.605470
-483.099545
-487.800414
-504.653089
-519.315288
-532.750419
-547.593528
-563.441911
-580.095357
-596.492135
-613.127818
-632.688879
-644.275174
-671.490829
-670.622887
-711.645553
-718.900816
-734.376597
-750.180373
-760.584332
-791.717857
-820.898026
-843.017065
-821.026652
-843.436888
-853.125659
-878.645961
-888.599116
-917.390786
-925.670950
-941.982168
-962.137860
-988.936073
-985.675125
-992.172268
-1043.777522
-800.220905
-696.360669
-573.078786
-450.317619
-328.380535
-204.993594
-81.223822
41.563746
159.771686
287.541963
408.271059
534.459098
649.525762
783.910142
877.307402
77.435429
-271.233456
124.865251
240.692844
46.517971
-331.815076
-25.219452
598.252387
-66.500097
-546.946115
-120.677717
91.780851
-549.986040
-8.328632
-136.980265
-619.841898
-205.047841
-277.717990
376.931606
128.282547
71.295522
-1.925165
-371.103997
-327.200972
-380.613634
37.796082
521.551229
-21.160617
227.318175
-179.510146
337.131981
31.327962
-35.931197
136.832867
-159.178570
-343.217236
-398.675729
-146.435729
253.901335
67.208342
-0.198608
348.493449
42.506548
-613.404776
250.250234
88.989801
67.409659
270.277444
29.802984
39.385380
224.546415
-189.321742
267.702796
109.045552
-540.485915
462.930209
27.099092
-112.058746
524.550180
-294.912985
179.448340
347.946743
114.150806
288.055656
-18.324215
427.589440
725.869496
25.375262
-774.624117
91.823970
18.429722
290.654648
-31.317974
36.455209
467.110322
11.562694
48.692287
609.834714
39.423945
275.863531
-194.500978
350.436471
-371.028044
74.554731
547.533160
444.975193
234.799588
-221.931618
116.471460
6.846316
776.753986
366.430613
-17.839489
5.421492
172.041290
-332.175073
466.647343
-501.656023
-29.326743
-54.895022
-153.756616
-573.189950
-24.089188
451.102231
687.671626
-20.647777
-65.279358
554.661560
-664.407237
221.966449
-82.853286
-342.986420
50.644866
146.674605
-71.845230
-143.498061
-660.102315
31.131875
-65.954687
-684.650015
-11.403454
173.227444
318.275465
39.123511
564.107460
-268.737066
-710.553888
-137.409940
368.500600
-101.885701
51.378779
-237.342634
-148.942192
33.457579
194.290174
-2.762253
-69.857190
-284.364785
538.976934
672.475916
198.377671
-18.010272
-225.938356
-380.647045
10.552913
823.129957
208.687800
347.202147
-394.401353
153.083984
575.698639
-125.893696
93.983281
91.794586
-6.557287
-344.305016
-87.594653
221.812519
62.723963
-412.710858
188.362786
432.143858
7.055418
-441.297722
-146.331020
-140.175371
709.395889
-10.507259
472.258574
179.922308
269.584214
340.047168
373.775242
-527.896466
231.565112
-90.512378
-110.863210
-80.732746
-510.342937
-161.769321
4.245987
657.801265
-108.609044
431.926893
-22.455877
-556.516643
-48.668203
-96.085118
-253.526141
-63.561515
30.600559
1.613891
190.559518
106.421022
44.604847
150.454699
-97.603993
-121.894612
-165.994814
112.092329
18.507784
-222.406998
-140.117558
457.886346
-111.766127
-2.220126
273.162631
408.532306
-50.588573
282.699887
398.431456
-72.265805
46.658184
-211.890003
78.251944
-118.692915
496.289804
-298.593076
-51.825232
-79.236503
-203.050104
-256.372877
281.055499
-48.360979
-60.458906
141.950667
-488.394618
242.555196
-193.986946
-219.646805
100.089771
241.277173
251.571045
-18.297015
156.232427
247.276646
-272.152786
-601.007768
-365.139564
-214.526893
-236.030147
-183.380351
224.215677
241.973504
147.384530
-743.955054
-151.809140
-139.554283
-189.402648
473.830984
-138.598132
132.564657
3.286753
163.653237
-228.576218
38.364734
116.665108
416.949080
173.854261
201.579438
100.206111
182.042691
-379.131563
-86.340702
230.979066
-67.825710
-23.062786
-27.767938
-60.204606
112.832663
-100.292622
-81.845358
25.228403
9.746416
34.538723
295.607683
-485.863848
-53.530449
28.400843
-2.005539
-92.084469
-385.803988
-362.491206
-395.858195
39.935286
80.212609
492.786413
-54.320673
719.720680
68.054316
-499.907467
-310.797983
-576.472467
-192.062197
-758.041680
40.030621
282.607038
200.042392
643.663045
-116.013288
108.805356
-47.624809
307.483649
5.352353
-3.827891
-650.405289
-205.069269
-173.078295
2.020122
122.412319
-449.316280
156.776533
175.914849
-173.381288
318.358464
103.711570
417.135554
-271.723776
209.760256
-110.017620
184.590933
-0.187037
425.364700
-312.520877
317.432235
-463.328420
5.313467
376.269342
-188.823665
132.257467
-716.545424
-157.034330
425.510188
566.239125
-586.303922
-228.351711
90.565582
121.025526
616.112240
-410.834239
-321.499489
-46.410415
278.572241
-21.990412
-572.714371
210.388009
-465.652704
93.117596
411.127393
-26.460165
-551.276243
-102.551253
66.161703
-547.281244
-56.611154
-489.292569
-43.790074
-250.157371
132.293241
145.593738
-103.793285
319.018650
-72.683353
-374.634757
433.972926
13.744341
79.397172
-125.722024
307.118473
-82.284445
294.716027
39.863088
-511.727115
-615.365673
165.811246
-43.278028
623.155001
299.929480
172.883102
762.186867
584.433393
406.874469
-202.132222
9.610183
127.448285
65.939644
-169.455715
-420.877716
212.873112
-33.616514
349.158628
-235.618959
79.745926
-58.539702
197.491664
610.745055
294.249713
436.257561
-252.854355
-704.276423
583.978048
-194.309719
130.742558
-30.839626
488.468607
-236.141043
-2.155031
363.374214
167.262162
-34.775422
-852.233708
639.076326
240.851980
240.876141
-103.152622
-320.261541
-54.497553
-195.010584
-35.064117
26.072838
671.261349
404.115978
374.838161
245.791705
-155.995655
-5.966115
-121.790617
241.057643
-147.114804
291.736098
-151.096282
-75.339265
570.783461
-495.010336
184.673882
-393.917206
35.457912
152.774456
-431.738439
170.528978
-312.136509
-29.463687
-21.653035
141.647375
234.630121
533.336816
-290.500923
96.360164
19.294682
-34.914089
25.460384
503.613221
120.324754
-489.972816
-372.125602
137.607313
817.625751
507.538262
135.740418
-759.039331
396.714401
-166.349478
71.944639
-58.995890
-621.495734
-201.781355
-167.607158
121.884426
187.315233
-462.190327
-338.020785
-21.984837
-527.350316
-127.352640
-180.765425
56.884556
122.391257
-74.140112
-291.844144
789.426301
-9.673283
120.390652
159.591729
-247.717696
-158.679897
-8.211600
222.461616
23.680877
138.055235
314.256048
806.141036
164.234611
-3.664834
54.636805
-605.616385
-392.894992
162.677405
417.625407
-32.542650
255.511687
10.803047
362.823491
-298.649158
-237.458595
675.333561
-249.031260
-18.832505
-233.423819
400.515558
-440.978834
105.983308
39.997939
-112.457077
6.286481
281.092155
-30.355219
-325.107534
363.424020
55.420810
-226.380044
-181.711559
-220.533178
-12.547714
-14.934030
38.275900
-4.729471
-27.753344
-149.051516
-667.099650
18.285576
-20.377420
106.475386
-23.299487
64.164536
-50.547137
-137.958961
-49.126745
16.349361
46.089603
-196.079863
279.466084
196.794521
37.075569
-143.131504
-199.166693
305.702942
-14.130617
222.232699
-53.660264
-111.271827
391.900775
-408.881097
210.193884
-44.609171
-722.926521
-486.841912
57.385007
89.453924
5.134708
-386.997436
67.365849
86.126607
68.500191
-289.011651
-247.088570
115.578532
158.264273
-94.862577
-46.649654
-226.282989
69.865827
-232.642171
-675.417475
-310.666396
287.727415
-80.105304
226.798098
-561.159420
-253.367192
-74.605167
-304.309593
-268.204105
-408.159484
58.195470
-179.109765
-226.277236
-350.701709
266.628843
47.239210
-775.479342
440.381729
-24.497370
745.581691
-551.917216
351.277527
78.143883
41.899916
302.750148
-505.932930
-125.068317
119.255456
-153.561273
21.861263
-677.138690
-249.506277
-74.924802
-110.195007
-90.011891
591.958817
49.411588
473.623729
7.382255
-228.756100
-130.449979
159.743905
132.533281
90.492496
-16.050493
-406.271687
420.693157
-208.515348
321.947712
-446.329730
-367.916744
10.218461
-270.812825
-2.518040
371.024874
-472.591794
184.015301
-195.804357
63.392025
-84.661337
-78.573164
306.922882
717.910120
-102.960633
-196.828718
-121.671342
-12.505839
54.501907
23.925091
17.087156
20.279761
-2.374641
105.677116
-23.622858
-30.640000
-284.189846
18.071619
-12.181785
-414.372845
102.359772
390.610445
499.687950
-466.620263
-186.300803
90.785109
-10.236885
-121.369103
-814.776937
130.190985
18.362899
-173.844035
402.605038
36.688366
42.631181
-111.596187
279.860612
509.697997
-27.071154
-50.261933
-718.915110
237.761398
-308.572588
-2.026762
-36.986979
-2.064929
-233.099571
143.285024
-347.160535
-2.784681
-680.312571
308.355017
359.520119
-471.510654
-274.717900
-177.614193
-140.298151
333.211607
-178.863736
-390.300595
-66.246960
251.629524
70.275951
-105.928735
51.773619
73.426292
-42.442360
261.513922
745.324974
135.306186
184.336063
-106.182774
57.033174
-390.625351
604.899743
85.558192
-37.639025
38.784091
388.749440
-33.920500
-296.715273
-7.847213
-277.403022
-456.772737
-88.759212
342.126545
-422.606790
12.076542
503.265777
15.156035
-90.463759
345.933646
248.466041
349.115681
348.079072
153.933794
-193.660292
46.620284
701.557849
104.311378
-13.833974
-54.294168
-47.326041
187.588691
59.381652
-33.335806
282.761070
177.606444
140.775101
-499.665197
-105.221518
202.604834
183.097425
168.119465
-165.100063
185.968412
-97.166831
-340.880737
40.433823
65.837793
161.233293
-108.820572
86.921313
147.012511
-337.349332
95.976674
25.606090
48.941513
124.030348
-132.146786
271.173100
496.635191
-67.548929
-520.912915
-142.340184
-129.294305
179.122989
-145.241863
-187.881500
-82.151988
-278.946293
574.571380
347.024842
197.378783
-358.910242
-28.158047
21.384039
-45.035706
-55.639809
-82.981594
-606.060977
85.431877
-620.861989
224.461085
-68.945567
510.018552
60.917828
576.042642
-37.119651
-51.711664
-313.061133
-50.630857
214.750927
-37.263077
-78.117121
-327.693336
-14.635704
-30.204907
239.902288
-802.992292
27.673889
102.548379
-73.855877
28.537935
-2.144262
-329.732958
99.222236
5.210800
85.601708
171.147599
195.804272
-482.954802
688.361146
70.321972
-566.725184
-423.329576
135.446358
-265.617217
10.206701
-350.091779
-110.931541
175.980411
-471.245719
-595.837895
30.384554
-292.369299
108.282237
-521.305017
-121.372759
506.170611
6.663609
11.239053
22.230250
-756.681268
-228.259679
-13.550296
256.895859
-64.911034
-151.155057
548.909279
4.404948
-26.357787
-420.927315
-177.464618
-595.931683
60.642827
-703.354802
85.100482
16.258837
709.547788
469.297797
-579.449166
-152.712377
-299.891137
66.327745
163.883224
331.402653
-114.867590
-710.809459
22.266481
46.740118
106.211201
-334.203394
-85.330642
62.334193
-81.742870
-8.399041
92.174465
-372.462146
304.225609
335.568574
-119.490938
-482.440408
-301.564950
173.447799
669.732383
22.169413
15.795804
-371.658309
481.192380
-249.336239
94.865649
-97.835498
78.950964
133.902381
-50.864212
-1.079187
129.245208
-60.918976
559.730648
366.237820
-248.826823
-246.158614
-37.896589
8.244488
56.083570
242.100964
256.393869
-390.118214
-6.841228
399.273735
-38.967331
13.619964
-443.211840
280.538097
278.357562
-295.989878
-89.291884
-261.557108
-711.422208
75.719003
-192.037015
-311.566825
-152.623859
-37.614830
144.583010
631.248264
-403.793455
-262.561868
-130.294095
485.444996
-388.812157
-543.098057
40.706790
-17.092852
555.747974
-194.584939
-12.651175
284.537472
-47.049268
87.593775
-489.783726
-473.316735
-11.575685
-96.408481
-101.099969
-59.462144
3.945811
453.594866
-505.889847
-26.997841
18.115001
512.741869
