# vtk DataFile Version 2.0
patchtest_tri6_mix
ASCII
DATASET POLYDATA
POINTS 100 float
0.000000 0.000000 0.000000
1.000000 0.000000 0.000000
1.000000 1.000000 0.000000
0.000000 1.000000 0.000000
0.100000 0.000000 0.000000
0.200000 0.000000 0.000000
0.300000 0.000000 0.000000
0.400000 0.000000 0.000000
0.500000 0.000000 0.000000
0.600000 0.000000 0.000000
0.700000 0.000000 0.000000
0.800000 0.000000 0.000000
0.900000 0.000000 0.000000
1.000000 0.100000 0.000000
1.000000 0.200000 0.000000
1.000000 0.300000 0.000000
1.000000 0.400000 0.000000
1.000000 0.500000 0.000000
1.000000 0.600000 0.000000
1.000000 0.700000 0.000000
1.000000 0.800000 0.000000
1.000000 0.900000 0.000000
0.900000 1.000000 0.000000
0.800000 1.000000 0.000000
0.700000 1.000000 0.000000
0.600000 1.000000 0.000000
0.500000 1.000000 0.000000
0.400000 1.000000 0.000000
0.300000 1.000000 0.000000
0.200000 1.000000 0.000000
0.100000 1.000000 0.000000
0.000000 0.900000 0.000000
0.000000 0.800000 0.000000
0.000000 0.700000 0.000000
0.000000 0.600000 0.000000
0.000000 0.500000 0.000000
0.000000 0.400000 0.000000
0.000000 0.300000 0.000000
0.000000 0.200000 0.000000
0.000000 0.100000 0.000000
0.639528 0.114880 0.000000
0.441985 0.225230 0.000000
0.618860 0.336557 0.000000
0.426096 0.443747 0.000000
0.323850 0.223909 0.000000
0.675387 0.664904 0.000000
0.493697 0.335858 0.000000
0.562168 0.226071 0.000000
0.373757 0.773501 0.000000
0.901025 0.221465 0.000000
0.097781 0.673642 0.000000
0.896280 0.891482 0.000000
0.490784 0.552930 0.000000
0.413423 0.112242 0.000000
0.200514 0.665365 0.000000
0.240230 0.337415 0.000000
0.554334 0.663466 0.000000
0.672289 0.885892 0.000000
0.102543 0.891993 0.000000
0.158303 0.445156 0.000000
0.314114 0.662616 0.000000
0.555065 0.885377 0.000000
0.105147 0.218327 0.000000
0.617515 0.774398 0.000000
0.786937 0.887644 0.000000
0.322269 0.886061 0.000000
0.873788 0.335667 0.000000
0.103215 0.108556 0.000000
0.116278 0.332512 0.000000
0.615695 0.554631 0.000000
0.211831 0.224595 0.000000
0.125290 0.781346 0.000000
0.205158 0.112325 0.000000
0.433261 0.662429 0.000000
0.296793 0.444065 0.000000
0.742458 0.775839 0.000000
0.437714 0.885069 0.000000
0.524085 0.113563 0.000000
0.365521 0.551651 0.000000
0.250378 0.775356 0.000000
0.759530 0.115467 0.000000
0.899752 0.447662 0.000000
0.115574 0.558380 0.000000
0.796016 0.227570 0.000000
0.872147 0.559627 0.000000
0.879958 0.111807 0.000000
0.901425 0.673328 0.000000
0.307613 0.111120 0.000000
0.793254 0.447486 0.000000
0.745073 0.337735 0.000000
0.681353 0.226957 0.000000
0.870670 0.780675 0.000000
0.209782 0.888147 0.000000
0.551904 0.444940 0.000000
0.674810 0.446152 0.000000
0.367110 0.335419 0.000000
0.495376 0.773561 0.000000
0.741873 0.555866 0.000000
0.793323 0.666545 0.000000
0.238937 0.551498 0.000000
POLYGONS 158 632
3 39 0 4
3 38 39 67
3 4 5 67
3 62 67 72
3 4 67 39
3 38 67 62
3 36 37 68
3 35 36 59
3 62 70 68
3 59 68 55
3 68 59 36
3 62 68 37
3 37 38 62
3 82 35 59
3 5 72 67
3 72 6 87
3 6 72 5
3 87 6 7
3 70 72 87
3 87 53 44
3 53 87 7
3 77 41 53
3 44 53 41
3 70 87 44
3 55 95 74
3 55 70 44
3 55 74 59
3 70 55 68
3 95 41 46
3 55 44 95
3 52 43 93
3 46 43 95
3 46 41 47
3 95 43 74
3 44 41 95
3 99 59 74
3 53 7 8
3 72 70 62
3 78 74 43
3 34 50 33
3 50 34 82
3 33 50 71
3 54 71 50
3 54 82 99
3 92 58 71
3 54 50 82
3 34 35 82
3 33 71 32
3 31 32 58
3 3 31 30
3 30 58 29
3 58 30 31
3 92 29 58
3 32 71 58
3 71 54 79
3 99 78 60
3 78 99 74
3 60 78 73
3 54 60 79
3 60 73 48
3 73 78 52
3 96 73 56
3 48 73 96
3 78 43 52
3 79 60 48
3 28 92 65
3 92 71 79
3 65 92 79
3 92 28 29
3 27 76 26
3 76 65 48
3 65 27 28
3 27 65 76
3 76 96 61
3 65 79 48
3 96 76 48
3 56 73 52
3 54 99 60
3 82 59 99
3 93 43 46
3 8 9 77
3 77 9 40
3 47 41 77
3 40 10 80
3 10 40 9
3 80 10 11
3 40 80 90
3 77 40 47
3 46 42 93
3 46 47 42
3 42 47 90
3 93 42 94
3 42 89 94
3 89 42 90
3 83 89 90
3 94 89 88
3 47 40 90
3 69 93 94
3 90 80 83
3 52 93 69
3 11 12 85
3 85 12 13
3 85 83 80
3 1 13 12
3 13 14 85
3 85 14 49
3 89 66 88
3 66 89 83
3 66 83 49
3 88 66 81
3 16 66 15
3 15 49 14
3 81 16 17
3 81 66 16
3 15 66 49
3 83 85 49
3 88 81 84
3 85 80 11
3 97 94 88
3 63 56 45
3 56 52 69
3 45 56 69
3 63 61 96
3 75 45 98
3 97 45 69
3 64 75 91
3 45 75 63
3 94 97 69
3 63 75 57
3 26 61 25
3 26 76 61
3 25 61 57
3 57 64 24
3 64 57 75
3 24 64 23
3 57 24 25
3 61 63 57
3 98 45 97
3 56 63 96
3 98 84 86
3 84 98 97
3 86 84 18
3 91 98 86
3 17 18 84
3 18 19 86
3 97 88 84
3 91 86 19
3 64 51 23
3 64 91 51
3 51 91 20
3 23 51 22
3 21 22 51
3 2 22 21
3 21 51 20
3 91 19 20
3 91 75 98
3 17 84 81
3 53 8 77
POINT_DATA 100
SCALARS P float 1
LOOKUP_TABLE default
627636947.892560
2525225046.669637
7111793129.233688
3152534232.024807
587661915.153559
768734700.782515
925661772.421467
1106519102.173269
1300829417.554644
1512611789.298671
1736394659.835236
1985093926.610583
2234156804.349858
2860209796.481773
3251093236.613532
3640313206.245453
4071993122.331627
4514733545.927975
4985623276.612955
5484077328.983652
5993698116.835036
6541920823.701735
6634309003.554075
6188340471.594580
5751732868.591601
5333759340.505044
4930917561.707180
4543503034.184457
4172917942.653046
3815628836.418272
3478613494.421247
2783677038.813136
2430054895.815070
2108002406.026089
1807561349.244842
1517222954.000535
1273240323.230042
1037842294.796002
836253645.334147
615637065.802541
1928307209.745777
1773594801.529540
2590446594.158873
2413666836.291509
1500904975.450535
4057630722.738550
2241640316.011173
2072386620.377905
3472057183.302664
3012856246.062499
2278073306.623317
6030672611.576191
2989902208.198111
1402746473.069428
2536401098.470902
1620941259.944067
3629155541.150719
5064196644.499207
3062071148.611278
1732966313.593293
2857795372.466222
4603135988.988561
1048425303.176040
4331098064.243974
5542497093.467856
3760363824.799913
3367563628.857731
822906613.766969
1339895440.827907
3393404941.101590
1268764682.099272
2724718654.561914
996855695.138469
3226367584.413607
2070495284.271515
4812411401.815911
4164883566.465787
1648830396.308363
2611991099.805918
3081045561.170295
2236011280.902394
3916619351.586871
1964744770.457579
2722183800.892653
4307877989.862617
2557342958.114014
4947914297.098887
1185946324.152858
3551967013.769364
2967470232.457938
2391850620.684368
5350268440.012168
3391685765.358748
2778003981.704834
3159394597.756846
1915533077.199386
3887265370.571584
3823736987.401571
4499481617.626649
2259794508.097381
