# vtk DataFile Version 2.0
patchtest_tri3_mix
ASCII
DATASET POLYDATA
POINTS 411 float
0.000000 0.000000 0.000000
1.000000 0.000000 0.000000
1.000000 1.000000 0.000000
0.000000 1.000000 0.000000
0.055556 0.000000 0.000000
0.111111 0.000000 0.000000
0.166667 0.000000 0.000000
0.222222 0.000000 0.000000
0.277778 0.000000 0.000000
0.333333 0.000000 0.000000
0.388889 0.000000 0.000000
0.444444 0.000000 0.000000
0.500000 0.000000 0.000000
0.555556 0.000000 0.000000
0.611111 0.000000 0.000000
0.666667 0.000000 0.000000
0.722222 0.000000 0.000000
0.777778 0.000000 0.000000
0.833333 0.000000 0.000000
0.888889 0.000000 0.000000
0.944444 0.000000 0.000000
1.000000 0.055556 0.000000
1.000000 0.111111 0.000000
1.000000 0.166667 0.000000
1.000000 0.222222 0.000000
1.000000 0.277778 0.000000
1.000000 0.333333 0.000000
1.000000 0.388889 0.000000
1.000000 0.444444 0.000000
1.000000 0.500000 0.000000
1.000000 0.555556 0.000000
1.000000 0.611111 0.000000
1.000000 0.666667 0.000000
1.000000 0.722222 0.000000
1.000000 0.777778 0.000000
1.000000 0.833333 0.000000
1.000000 0.888889 0.000000
1.000000 0.944444 0.000000
0.944444 1.000000 0.000000
0.888889 1.000000 0.000000
0.833333 1.000000 0.000000
0.777778 1.000000 0.000000
0.722222 1.000000 0.000000
0.666667 1.000000 0.000000
0.611111 1.000000 0.000000
0.555556 1.000000 0.000000
0.500000 1.000000 0.000000
0.444444 1.000000 0.000000
0.388889 1.000000 0.000000
0.333333 1.000000 0.000000
0.277778 1.000000 0.000000
0.222222 1.000000 0.000000
0.166667 1.000000 0.000000
0.111111 1.000000 0.000000
0.055556 1.000000 0.000000
0.000000 0.944444 0.000000
0.000000 0.888889 0.000000
0.000000 0.833333 0.000000
0.000000 0.777778 0.000000
0.000000 0.722222 0.000000
0.000000 0.666667 0.000000
0.000000 0.611111 0.000000
0.000000 0.555556 0.000000
0.000000 0.500000 0.000000
0.000000 0.444444 0.000000
0.000000 0.388889 0.000000
0.000000 0.333333 0.000000
0.000000 0.277778 0.000000
0.000000 0.222222 0.000000
0.000000 0.166667 0.000000
0.000000 0.111111 0.000000
0.000000 0.055556 0.000000
0.096718 0.094397 0.000000
0.652633 0.630822 0.000000
0.108941 0.751404 0.000000
0.354319 0.146725 0.000000
0.746316 0.594980 0.000000
0.615005 0.904608 0.000000
0.652203 0.766027 0.000000
0.672266 0.679981 0.000000
0.088621 0.898972 0.000000
0.704989 0.048319 0.000000
0.418712 0.051328 0.000000
0.633659 0.581490 0.000000
0.648955 0.388576 0.000000
0.540638 0.756751 0.000000
0.584822 0.951843 0.000000
0.048373 0.094183 0.000000
0.601364 0.481328 0.000000
0.655591 0.144018 0.000000
0.518978 0.706297 0.000000
0.044453 0.305552 0.000000
0.588884 0.856447 0.000000
0.333824 0.349685 0.000000
0.255844 0.722381 0.000000
0.704865 0.291561 0.000000
0.473596 0.950576 0.000000
0.562983 0.098459 0.000000
0.199369 0.951375 0.000000
0.508452 0.802573 0.000000
0.672140 0.904193 0.000000
0.044839 0.906253 0.000000
0.843660 0.242571 0.000000
0.417493 0.272277 0.000000
0.206929 0.204783 0.000000
0.306905 0.187042 0.000000
0.443211 0.645575 0.000000
0.359919 0.197984 0.000000
0.653864 0.486212 0.000000
0.855632 0.190573 0.000000
0.705660 0.390148 0.000000
0.903007 0.833316 0.000000
0.697023 0.951964 0.000000
0.763647 0.048204 0.000000
0.097370 0.141210 0.000000
0.280220 0.588406 0.000000
0.531153 0.049403 0.000000
0.907132 0.098338 0.000000
0.690220 0.438560 0.000000
0.853291 0.302736 0.000000
0.200627 0.710236 0.000000
0.342264 0.902475 0.000000
0.900816 0.214625 0.000000
0.455814 0.494674 0.000000
0.324425 0.293700 0.000000
0.211046 0.516331 0.000000
0.224795 0.568980 0.000000
0.101599 0.848324 0.000000
0.384770 0.367105 0.000000
0.144958 0.095087 0.000000
0.519173 0.312140 0.000000
0.796791 0.095716 0.000000
0.803221 0.191834 0.000000
0.087984 0.798462 0.000000
0.950463 0.357961 0.000000
0.706427 0.489253 0.000000
0.855661 0.636880 0.000000
0.253956 0.951876 0.000000
0.707634 0.770761 0.000000
0.045862 0.045813 0.000000
0.196284 0.049213 0.000000
0.951498 0.470194 0.000000
0.299162 0.443192 0.000000
0.389174 0.631251 0.000000
0.884090 0.048050 0.000000
0.415332 0.534299 0.000000
0.095967 0.655016 0.000000
0.393844 0.422841 0.000000
0.808248 0.499290 0.000000
0.528954 0.951166 0.000000
0.757059 0.289161 0.000000
0.759241 0.390363 0.000000
0.144856 0.396890 0.000000
0.690509 0.588429 0.000000
0.267039 0.534026 0.000000
0.904213 0.611044 0.000000
0.903340 0.554624 0.000000
0.606514 0.286784 0.000000
0.713495 0.144268 0.000000
0.901972 0.722068 0.000000
0.409110 0.214721 0.000000
0.680331 0.096155 0.000000
0.847689 0.697051 0.000000
0.135799 0.290205 0.000000
0.811565 0.656315 0.000000
0.189953 0.355813 0.000000
0.558503 0.279797 0.000000
0.094972 0.949729 0.000000
0.654849 0.290767 0.000000
0.957232 0.957719 0.000000
0.681362 0.341419 0.000000
0.508857 0.255337 0.000000
0.948049 0.185537 0.000000
0.342303 0.405485 0.000000
0.152449 0.193523 0.000000
0.053298 0.526610 0.000000
0.795120 0.337130 0.000000
0.162275 0.752204 0.000000
0.761856 0.648572 0.000000
0.108908 0.235885 0.000000
0.138156 0.597290 0.000000
0.351755 0.460986 0.000000
0.046985 0.361011 0.000000
0.801175 0.603789 0.000000
0.453565 0.797760 0.000000
0.772088 0.143892 0.000000
0.736457 0.809879 0.000000
0.505420 0.098067 0.000000
0.577174 0.572532 0.000000
0.047768 0.692341 0.000000
0.732197 0.695258 0.000000
0.728795 0.904332 0.000000
0.633355 0.718483 0.000000
0.290903 0.388041 0.000000
0.140876 0.343555 0.000000
0.950792 0.639541 0.000000
0.436257 0.384953 0.000000
0.853098 0.414469 0.000000
0.428821 0.744088 0.000000
0.248078 0.052116 0.000000
0.461934 0.698560 0.000000
0.446149 0.103978 0.000000
0.232899 0.315566 0.000000
0.093042 0.334019 0.000000
0.533208 0.853511 0.000000
0.507968 0.509320 0.000000
0.743687 0.440324 0.000000
0.854855 0.096690 0.000000
0.246406 0.674257 0.000000
0.309185 0.951935 0.000000
0.275139 0.765353 0.000000
0.738054 0.340584 0.000000
0.333968 0.607373 0.000000
0.183449 0.902320 0.000000
0.403889 0.478388 0.000000
0.676566 0.813110 0.000000
0.948990 0.859132 0.000000
0.239942 0.370748 0.000000
0.467968 0.549551 0.000000
0.049992 0.471609 0.000000
0.558715 0.903257 0.000000
0.668072 0.536698 0.000000
0.499340 0.655429 0.000000
0.315061 0.238929 0.000000
0.572635 0.331516 0.000000
0.168120 0.553951 0.000000
0.809389 0.750891 0.000000
0.591896 0.431063 0.000000
0.265401 0.856024 0.000000
0.549022 0.469767 0.000000
0.588331 0.049265 0.000000
0.096801 0.704403 0.000000
0.044459 0.802434 0.000000
0.897583 0.270084 0.000000
0.626336 0.338566 0.000000
0.137847 0.801284 0.000000
0.288935 0.904252 0.000000
0.798726 0.444045 0.000000
0.428312 0.590302 0.000000
0.394514 0.899090 0.000000
0.687940 0.192752 0.000000
0.541816 0.416969 0.000000
0.307333 0.045462 0.000000
0.143471 0.648057 0.000000
0.576118 0.712731 0.000000
0.709202 0.640994 0.000000
0.448865 0.900261 0.000000
0.319697 0.855214 0.000000
0.768506 0.546137 0.000000
0.488903 0.402227 0.000000
0.246593 0.425659 0.000000
0.858166 0.524734 0.000000
0.482341 0.603356 0.000000
0.337049 0.095668 0.000000
0.594864 0.622019 0.000000
0.095872 0.386573 0.000000
0.272262 0.275869 0.000000
0.950200 0.750027 0.000000
0.345757 0.659814 0.000000
0.951364 0.804598 0.000000
0.702940 0.856817 0.000000
0.049438 0.579449 0.000000
0.556120 0.231009 0.000000
0.375456 0.573551 0.000000
0.401335 0.799269 0.000000
0.102188 0.493591 0.000000
0.301556 0.699066 0.000000
0.614941 0.530999 0.000000
0.050745 0.247377 0.000000
0.596641 0.761865 0.000000
0.752614 0.951679 0.000000
0.099729 0.187916 0.000000
0.573212 0.187133 0.000000
0.239190 0.622718 0.000000
0.613894 0.670392 0.000000
0.859490 0.853635 0.000000
0.831658 0.142677 0.000000
0.411503 0.154854 0.000000
0.197340 0.151212 0.000000
0.902367 0.441210 0.000000
0.478773 0.348544 0.000000
0.049824 0.853845 0.000000
0.900591 0.780200 0.000000
0.298110 0.138016 0.000000
0.951325 0.526628 0.000000
0.806747 0.951307 0.000000
0.856970 0.749503 0.000000
0.855810 0.583918 0.000000
0.909094 0.948212 0.000000
0.108067 0.548313 0.000000
0.147041 0.699798 0.000000
0.321681 0.552636 0.000000
0.521789 0.562239 0.000000
0.146117 0.950726 0.000000
0.455395 0.186089 0.000000
0.808919 0.849973 0.000000
0.753777 0.749458 0.000000
0.630119 0.191531 0.000000
0.478415 0.850310 0.000000
0.366501 0.253956 0.000000
0.845628 0.802147 0.000000
0.285336 0.089951 0.000000
0.738513 0.096176 0.000000
0.164868 0.245602 0.000000
0.900671 0.384681 0.000000
0.146650 0.143283 0.000000
0.691432 0.726560 0.000000
0.814282 0.552894 0.000000
0.497533 0.455444 0.000000
0.088995 0.283268 0.000000
0.391138 0.101359 0.000000
0.808485 0.285129 0.000000
0.950145 0.908990 0.000000
0.894754 0.152074 0.000000
0.144883 0.047670 0.000000
0.597671 0.142559 0.000000
0.536534 0.147578 0.000000
0.839508 0.902096 0.000000
0.757918 0.855702 0.000000
0.098622 0.439871 0.000000
0.646764 0.048212 0.000000
0.533233 0.366043 0.000000
0.788023 0.703058 0.000000
0.758281 0.492421 0.000000
0.261281 0.220552 0.000000
0.503315 0.901417 0.000000
0.480202 0.145384 0.000000
0.201349 0.463521 0.000000
0.556287 0.663530 0.000000
0.561032 0.521728 0.000000
0.356357 0.707210 0.000000
0.484539 0.750808 0.000000
0.251187 0.165926 0.000000
0.418383 0.949722 0.000000
0.852775 0.468237 0.000000
0.538042 0.613517 0.000000
0.897016 0.894183 0.000000
0.949347 0.300909 0.000000
0.283066 0.332261 0.000000
0.510427 0.197788 0.000000
0.785167 0.902528 0.000000
0.641108 0.951954 0.000000
0.193135 0.097791 0.000000
0.424889 0.849453 0.000000
0.780656 0.238457 0.000000
0.048882 0.144293 0.000000
0.404870 0.689246 0.000000
0.309545 0.497938 0.000000
0.901502 0.328611 0.000000
0.663571 0.241503 0.000000
0.950636 0.694410 0.000000
0.217569 0.760450 0.000000
0.473824 0.051153 0.000000
0.094446 0.047334 0.000000
0.297992 0.809404 0.000000
0.370617 0.848662 0.000000
0.823419 0.048226 0.000000
0.378411 0.751315 0.000000
0.591519 0.382296 0.000000
0.046590 0.954677 0.000000
0.364044 0.950797 0.000000
0.092309 0.603267 0.000000
0.639745 0.436231 0.000000
0.745588 0.192191 0.000000
0.608239 0.238485 0.000000
0.195044 0.409619 0.000000
0.240782 0.111687 0.000000
0.048321 0.416446 0.000000
0.622213 0.095803 0.000000
0.375680 0.310647 0.000000
0.903505 0.496805 0.000000
0.468417 0.292972 0.000000
0.899745 0.667860 0.000000
0.950600 0.413987 0.000000
0.787903 0.799668 0.000000
0.292085 0.644550 0.000000
0.183651 0.301646 0.000000
0.619945 0.810764 0.000000
0.950732 0.128013 0.000000
0.193923 0.659676 0.000000
0.134075 0.900617 0.000000
0.149198 0.450207 0.000000
0.951783 0.582932 0.000000
0.255475 0.480168 0.000000
0.363358 0.049209 0.000000
0.949540 0.244537 0.000000
0.235428 0.903386 0.000000
0.426708 0.329261 0.000000
0.445594 0.439747 0.000000
0.242582 0.808382 0.000000
0.219130 0.259382 0.000000
0.719713 0.541008 0.000000
0.563990 0.807018 0.000000
0.154882 0.852096 0.000000
0.945861 0.059409 0.000000
0.860018 0.949532 0.000000
0.346726 0.798991 0.000000
0.460941 0.237014 0.000000
0.154766 0.503229 0.000000
0.321466 0.750351 0.000000
0.052670 0.747823 0.000000
0.047046 0.636906 0.000000
0.187764 0.607825 0.000000
0.188208 0.804764 0.000000
0.362972 0.516743 0.000000
0.050733 0.195997 0.000000
0.807154 0.390617 0.000000
0.721194 0.241271 0.000000
0.850277 0.356118 0.000000
0.645378 0.858274 0.000000
0.209546 0.854213 0.000000
POLYGONS 748 2992
3 0 139 71
3 139 0 4
3 71 139 87
3 139 353 87
3 353 139 4
3 353 4 5
3 87 353 72
3 71 87 70
3 69 70 345
3 68 69 405
3 405 345 271
3 345 70 87
3 72 114 87
3 345 405 69
3 345 87 114
3 268 68 405
3 353 314 72
3 314 129 72
3 314 5 6
3 129 314 140
3 72 129 114
3 6 7 140
3 342 140 199
3 6 140 314
3 129 140 342
3 114 305 271
3 114 129 305
3 271 305 174
3 114 271 345
3 278 174 305
3 278 342 366
3 271 174 179
3 104 174 278
3 278 332 104
3 278 305 342
3 129 342 305
3 405 271 179
3 104 324 390
3 314 353 5
3 303 174 104
3 67 91 66
3 91 67 268
3 182 66 91
3 309 203 91
3 309 268 179
3 203 309 163
3 309 91 268
3 67 68 268
3 182 91 203
3 64 65 367
3 182 65 66
3 367 65 182
3 367 255 319
3 255 367 182
3 219 319 265
3 319 219 367
3 255 152 319
3 367 219 64
3 182 203 255
3 64 219 63
3 203 194 255
3 179 303 163
3 303 179 174
3 163 303 376
3 163 194 203
3 376 390 202
3 390 376 303
3 256 202 390
3 163 376 194
3 303 104 390
3 165 376 202
3 152 381 319
3 255 194 152
3 152 194 165
3 319 381 265
3 365 381 152
3 365 165 217
3 265 381 398
3 327 381 365
3 365 250 327
3 365 152 165
3 194 376 165
3 327 398 381
3 217 165 202
3 309 179 163
3 268 405 179
3 219 265 175
3 199 140 7
3 301 199 242
3 8 199 7
3 242 199 8
3 199 301 366
3 253 242 384
3 9 242 8
3 75 253 310
3 242 253 301
3 301 253 283
3 332 324 104
3 332 366 283
3 324 332 105
3 324 256 390
3 283 75 105
3 283 366 301
3 105 75 107
3 283 105 332
3 253 75 283
3 223 324 105
3 384 242 9
3 199 366 342
3 310 384 82
3 10 384 9
3 82 384 10
3 277 75 310
3 82 11 352
3 11 82 10
3 352 11 12
3 310 82 201
3 201 82 352
3 107 277 160
3 75 277 107
3 160 277 294
3 299 107 160
3 326 294 277
3 187 326 201
3 397 160 294
3 339 397 294
3 397 171 371
3 277 201 326
3 310 201 277
3 105 107 223
3 201 352 187
3 310 253 384
3 103 160 397
3 338 256 124
3 223 256 324
3 124 256 223
3 338 217 202
3 93 124 369
3 299 124 223
3 173 93 128
3 124 93 338
3 223 107 299
3 338 93 193
3 250 142 383
3 193 250 217
3 250 383 327
3 217 250 365
3 193 173 142
3 173 193 93
3 383 142 347
3 181 142 173
3 181 173 147
3 193 142 250
3 217 338 193
3 181 347 142
3 299 369 124
3 202 256 338
3 128 369 387
3 103 369 299
3 387 369 103
3 369 128 93
3 387 371 280
3 371 387 103
3 280 371 130
3 128 387 196
3 103 397 371
3 196 387 280
3 214 147 388
3 196 147 128
3 388 147 196
3 147 214 181
3 388 249 308
3 249 388 196
3 218 123 205
3 308 123 388
3 308 249 241
3 388 123 214
3 196 280 249
3 404 181 214
3 280 321 249
3 128 147 173
3 299 160 103
3 125 327 383
3 339 294 326
3 332 278 366
3 123 145 214
3 62 63 175
3 61 62 261
3 361 261 289
3 175 261 62
3 289 261 175
3 61 261 401
3 219 175 63
3 401 261 361
3 59 60 189
3 401 60 61
3 189 60 401
3 400 189 231
3 146 189 401
3 231 189 146
3 189 400 59
3 401 361 146
3 59 400 58
3 361 243 146
3 180 289 225
3 289 175 265
3 225 289 398
3 243 361 180
3 402 225 126
3 125 225 398
3 379 402 273
3 225 402 180
3 327 125 398
3 180 402 243
3 74 231 290
3 146 243 290
3 231 146 290
3 231 74 400
3 290 379 120
3 379 290 243
3 177 120 351
3 120 177 290
3 351 120 94
3 290 177 74
3 243 402 379
3 74 177 235
3 208 120 379
3 180 361 289
3 289 265 398
3 400 74 133
3 57 58 232
3 56 57 281
3 232 133 281
3 232 58 400
3 80 281 127
3 232 281 57
3 133 232 400
3 56 281 101
3 3 55 359
3 101 55 56
3 359 55 101
3 167 359 101
3 380 167 80
3 359 54 3
3 54 359 167
3 167 53 54
3 167 101 80
3 101 281 80
3 127 281 133
3 127 235 393
3 235 127 133
3 393 235 403
3 127 393 380
3 410 403 389
3 403 235 177
3 410 386 213
3 403 410 393
3 133 74 235
3 393 410 213
3 167 293 53
3 167 380 293
3 293 380 213
3 53 293 52
3 98 52 293
3 98 213 386
3 51 52 98
3 98 137 51
3 98 293 213
3 380 393 213
3 389 403 351
3 380 80 127
3 403 177 351
3 125 126 225
3 126 154 115
3 126 125 154
3 115 154 291
3 273 126 115
3 291 263 212
3 258 212 143
3 291 212 115
3 347 291 154
3 383 154 125
3 375 115 212
3 208 266 94
3 375 208 273
3 94 120 208
3 208 379 273
3 375 258 266
3 375 273 115
3 94 266 210
3 330 399 266
3 266 258 330
3 375 266 208
3 212 258 375
3 210 266 399
3 404 291 347
3 94 210 351
3 404 145 263
3 404 214 145
3 263 145 238
3 143 212 263
3 238 218 252
3 218 238 145
3 292 252 218
3 238 252 106
3 347 181 404
3 263 238 143
3 258 346 330
3 258 143 346
3 346 143 106
3 357 330 346
3 200 198 346
3 200 106 222
3 198 357 346
3 331 198 200
3 200 90 331
3 200 346 106
3 143 238 106
3 399 330 357
3 252 222 106
3 263 291 404
3 218 145 123
3 184 198 331
3 228 389 354
3 389 351 210
3 354 389 210
3 228 386 410
3 354 396 247
3 354 210 399
3 121 247 355
3 354 247 228
3 396 354 399
3 228 247 236
3 137 209 50
3 236 137 386
3 137 50 51
3 386 137 98
3 236 121 209
3 236 386 228
3 209 49 50
3 360 49 209
3 209 121 360
3 236 209 137
3 247 121 236
3 247 396 355
3 410 389 228
3 396 264 355
3 264 396 357
3 357 198 264
3 355 264 343
3 343 184 298
3 184 343 264
3 99 298 184
3 355 343 239
3 198 184 264
3 246 343 298
3 48 360 333
3 360 121 239
3 333 360 239
3 360 48 49
3 333 246 96
3 246 333 239
3 47 96 46
3 96 47 333
3 96 246 325
3 333 47 48
3 239 343 246
3 325 246 298
3 239 121 355
3 399 357 396
3 99 184 331
3 126 273 402
3 154 383 347
3 308 205 123
3 116 187 352
3 116 12 13
3 187 116 97
3 316 326 187
3 230 97 116
3 230 13 14
3 315 97 368
3 230 116 13
3 187 97 316
3 262 339 272
3 339 326 316
3 272 339 316
3 339 262 171
3 364 272 297
3 315 272 316
3 315 297 272
3 272 364 262
3 316 97 315
3 262 364 166
3 368 97 230
3 397 339 171
3 320 368 230
3 320 14 15
3 161 368 320
3 89 315 368
3 15 16 81
3 302 81 113
3 15 81 320
3 161 320 81
3 89 297 315
3 89 368 161
3 89 161 158
3 297 89 240
3 363 158 185
3 158 240 89
3 349 297 240
3 363 240 158
3 407 363 344
3 158 161 302
3 161 81 302
3 364 297 349
3 81 16 113
3 230 14 320
3 407 240 363
3 171 166 130
3 166 364 157
3 130 166 224
3 321 280 130
3 224 157 234
3 157 224 166
3 234 157 168
3 224 234 358
3 171 262 166
3 130 224 321
3 241 229 308
3 241 321 358
3 229 241 227
3 249 321 241
3 358 227 241
3 362 227 84
3 88 362 108
3 362 88 227
3 84 227 358
3 227 88 229
3 321 224 358
3 229 88 329
3 358 234 84
3 308 229 205
3 168 349 95
3 168 157 364
3 95 349 407
3 170 168 95
3 150 211 95
3 344 150 407
3 151 110 211
3 150 95 407
3 349 240 407
3 170 95 211
3 362 118 108
3 84 234 170
3 110 84 170
3 118 362 84
3 118 110 206
3 110 118 84
3 135 206 323
3 206 135 118
3 170 211 110
3 118 135 108
3 110 151 206
3 221 108 135
3 211 150 176
3 170 234 168
3 168 364 349
3 88 108 267
3 185 158 302
3 371 171 130
3 131 113 356
3 17 113 16
3 356 113 17
3 131 185 302
3 356 18 144
3 18 356 17
3 144 18 19
3 131 356 207
3 207 356 144
3 132 344 363
3 132 185 276
3 344 132 102
3 150 344 311
3 109 276 313
3 276 185 131
3 102 109 122
3 102 132 109
3 313 276 207
3 109 132 276
3 131 207 276
3 344 102 311
3 207 144 117
3 363 185 132
3 144 394 117
3 144 20 394
3 117 313 207
3 20 21 394
3 21 20 1
3 117 394 378
3 22 394 21
3 313 172 122
3 172 313 378
3 385 122 172
3 313 122 109
3 378 22 23
3 22 378 394
3 24 172 23
3 23 172 378
3 313 117 378
3 102 122 233
3 19 20 144
3 24 385 172
3 408 176 119
3 151 211 176
3 119 176 311
3 406 176 408
3 348 408 119
3 119 311 102
3 348 119 233
3 408 348 304
3 233 119 102
3 197 408 304
3 206 237 323
3 237 206 151
3 237 151 406
3 323 237 148
3 197 334 237
3 197 406 408
3 251 148 334
3 148 237 334
3 334 197 279
3 237 406 197
3 151 176 406
3 135 323 391
3 197 304 279
3 150 311 176
3 233 337 348
3 337 233 385
3 337 385 25
3 348 337 134
3 337 26 134
3 26 337 25
3 134 26 27
3 385 24 25
3 373 304 134
3 370 279 141
3 279 304 373
3 141 279 373
3 279 370 334
3 28 141 373
3 370 141 284
3 29 141 28
3 28 373 27
3 373 134 27
3 251 334 370
3 134 304 348
3 122 385 233
3 29 284 141
3 302 113 131
3 148 248 323
3 292 188 335
3 329 292 205
3 335 222 252
3 335 252 292
3 188 83 254
3 267 188 329
3 188 254 335
3 329 188 292
3 329 88 267
3 335 254 328
3 90 244 85
3 328 90 222
3 85 99 331
3 85 331 90
3 328 274 244
3 269 244 192
3 244 269 85
3 328 244 90
3 222 335 328
3 85 269 392
3 274 328 254
3 218 205 292
3 267 221 83
3 267 108 221
3 83 221 153
3 73 254 83
3 153 391 76
3 391 153 221
3 76 391 248
3 153 76 245
3 135 391 221
3 83 153 73
3 192 274 79
3 274 254 73
3 79 274 73
3 274 192 244
3 79 245 190
3 245 79 73
3 138 306 296
3 190 306 79
3 190 245 178
3 79 306 192
3 73 153 245
3 269 192 78
3 296 306 190
3 83 188 267
3 329 205 229
3 78 192 306
3 298 204 325
3 298 99 204
3 204 99 392
3 220 325 204
3 392 377 92
3 377 392 269
3 77 92 409
3 392 92 204
3 99 85 392
3 220 204 92
3 46 149 45
3 46 96 149
3 45 149 86
3 220 77 86
3 77 220 92
3 86 44 45
3 341 44 86
3 341 86 77
3 220 86 149
3 149 325 220
3 409 92 377
3 96 325 149
3 377 215 409
3 215 377 78
3 215 78 138
3 409 215 260
3 215 186 260
3 186 215 138
3 296 186 138
3 191 260 318
3 78 306 138
3 409 260 100
3 43 341 112
3 341 77 100
3 112 341 100
3 341 43 44
3 191 270 112
3 340 270 191
3 112 42 43
3 42 112 270
3 270 41 42
3 191 112 100
3 100 260 191
3 186 318 260
3 100 77 409
3 78 377 269
3 76 178 245
3 222 90 200
3 248 307 183
3 248 148 307
3 183 307 287
3 183 178 76
3 155 136 287
3 287 136 183
3 251 287 307
3 372 162 136
3 391 323 248
3 183 136 164
3 190 322 296
3 190 178 322
3 322 178 164
3 296 322 226
3 162 226 322
3 162 164 136
3 300 226 286
3 286 226 162
3 286 162 159
3 162 322 164
3 178 183 164
3 296 226 374
3 156 287 251
3 76 248 183
3 155 156 382
3 156 251 370
3 382 156 284
3 155 372 136
3 382 30 31
3 30 382 284
3 155 382 195
3 284 29 30
3 195 382 31
3 159 350 257
3 350 159 372
3 286 159 282
3 372 159 162
3 195 32 350
3 32 195 31
3 350 33 257
3 33 350 32
3 195 350 372
3 372 155 195
3 257 33 34
3 155 287 156
3 307 148 251
3 257 282 159
3 318 374 295
3 318 186 374
3 295 374 300
3 340 318 295
3 275 111 336
3 111 275 300
3 295 275 317
3 300 275 295
3 226 300 374
3 336 317 275
3 270 285 41
3 270 340 285
3 285 340 317
3 41 285 40
3 395 40 285
3 317 336 395
3 39 40 395
3 395 288 39
3 395 285 317
3 340 295 317
3 395 336 288
3 340 191 318
3 111 259 216
3 259 111 282
3 216 312 336
3 282 111 300
3 259 34 35
3 259 282 257
3 259 35 216
3 257 34 259
3 216 35 36
3 38 288 169
3 288 336 312
3 169 288 312
3 288 38 39
3 37 169 312
3 169 2 38
3 2 169 37
3 37 312 36
3 312 216 36
3 336 111 216
3 286 282 300
3 374 186 296
3 284 156 370
3 12 116 352
POINT_DATA 411
SCALARS P float 1
LOOKUP_TABLE default
2534113228.272837
29496193131.985039
139472535640.661652
40807877104.999092
3089474950.672149
3785537365.376245
4503858334.922421
5342719660.300159
6273096494.157385
7305799267.491470
8429517208.602901
9682593731.623558
11038512495.232914
12527359605.745565
14154046163.222664
15911503238.144756
17788978204.521809
19815825191.489048
21953011393.864109
24346438651.664173
26770710758.994423
32867316818.879208
36569095993.090546
40497599552.444763
44722770663.908905
49244709968.831749
54028653989.707794
59128982103.007072
64523551711.922737
70254764059.882278
76325328687.508987
82725191392.938232
89483898510.115952
96580900302.768890
104053449224.140839
111894020615.807388
120179333429.448853
128455385428.076874
129979790820.020126
123095031286.828079
116061810484.953384
109381946040.134766
102951935056.979385
96766835123.345551
90855268594.425919
85163114083.483398
79725977674.799316
74520098907.127853
69556030281.921890
64816099416.558029
60297601933.081215
55983013013.780609
51887249724.556244
47986338514.243439
44302296701.971260
36817075498.363060
33118510194.743610
29680187327.488373
26472658034.938313
23521497672.797211
20784577080.351044
18273480108.359608
15979997911.466951
13869644523.699015
11974162047.432932
10246984288.796062
8706033242.606903
7318295945.745461
6089302329.102425
4997092182.759287
4071768407.578199
3213267009.379969
5177480472.602122
54861665777.134621
30168811195.550255
11855145406.350166
58713132424.870071
79721465030.923294
67900487239.024353
60952198962.232689
38787097332.226562
19239541103.646000
10546426480.041456
49205468779.184097
35613557493.723091
57876131585.918579
82292657181.889206
4409455480.346390
39329665347.186310
21794242939.154087
51736936641.846405
8933148047.997478
71912154177.916290
18956125830.942173
36145294965.685410
32317810167.041134
71757762315.701279
16380391922.124117
50019294760.733131
59692345854.133881
85257467974.562378
36763215731.200737
36663723180.842468
18602336063.378429
9886761829.293818
11885506522.750090
41762971650.163193
13756562084.476238
42925259810.120346
33882472206.563854
38996874010.044579
100658566470.664429
93782388075.877350
21508130441.214687
6067954044.581875
28925729482.749489
13537698272.552797
30753613031.300686
41605287044.171219
41558899921.616631
32331294040.929420
56162370391.177666
38026689606.714607
32085460414.484791
16266736994.131384
21970148361.337662
25251576590.663990
35999883624.385025
21721233705.221653
5933971031.715669
24588010886.665424
25316367728.140514
31163684230.246475
32016233072.771999
52564138052.618301
46582062136.523811
72099835392.094742
53989491692.444504
73313101188.383087
3675830168.046389
5876566016.359707
63101609265.426323
21968483931.776688
37483129417.820076
26679161299.993950
32464569758.425529
24146240717.446419
24936876662.538479
54629139800.449127
76878391862.976257
34956172832.726830
42281569503.579056
14499297299.321697
53874482874.049332
25255608218.150913
73665352061.476212
67579347066.812592
27162900704.729065
24231734762.050537
86288712207.856873
15923298189.624681
20519570212.295609
78009447805.132355
10663257707.684635
70275459557.674332
14366246684.512817
24597623142.539265
42924851808.036903
29709020430.551620
125359278951.053406
34264363166.526436
21302240051.850559
38760044770.887306
21874296043.500656
8350653594.997763
16585341759.630861
40531502883.693520
32978748971.816795
65191946167.640358
8506616250.074499
22991039703.993324
25114467207.053822
10576909016.089355
63958506950.858612
55014497536.000435
26854750215.866863
80393864406.405197
14511535348.083809
44680549213.664963
24008827516.175358
67451368274.462784
91072060760.258469
61558145751.426567
19074590558.049351
12500387583.313435
81257210110.251053
24797896291.860729
50470248825.865631
48599522554.589554
6854713362.396317
47118446668.555122
12970355695.825571
14194251734.954580
10917110908.783535
66749331349.306129
35870754212.456390
45154404677.666969
28059591199.826279
32453079074.171669
58177635618.329887
40300046010.890488
37395387054.748177
32818540165.787106
44947021031.431091
28493202015.160923
75129875741.415466
109507850736.477509
16544391513.805605
36352808751.785820
14353383792.336222
74292857239.972397
47862298815.382500
46131757366.128960
13889162671.223934
28092726963.769787
22072516390.949108
80580674917.745850
35287291319.550049
46661462982.446625
35500653120.631035
15269157301.705854
26869440219.480141
30031412276.363861
41879564068.141998
31172938575.433407
34860267628.386436
52369931134.787941
49154288322.861259
36890732385.040665
59885181407.175728
25696800942.535709
31691311807.868576
7853303950.676014
25884010382.546707
56532061469.536293
60148206382.655060
64402008887.978523
50321350374.163437
55891545568.895027
28165574331.552952
19113591684.929695
60863048216.121147
41032922752.303780
9861157477.550543
49907709858.434326
12691257237.076778
13939311886.524338
94803188570.914932
36955695957.773628
102201788315.884369
82646421963.281021
18674269883.985607
22028590119.887634
32856336167.727081
51349576899.060905
16892145884.804548
37133820690.492813
43886282989.603874
7589784589.518068
62829643050.523224
99787995509.217255
7159281947.752450
20604097353.614582
28944150459.924858
55526316258.588676
98556952090.458344
29637106294.029636
13739751516.194458
8221743321.269017
56446051298.386147
24739427844.214245
33506334348.723175
93393542487.580368
10140274778.091770
68817910946.981750
105901616938.189423
85091542987.640457
66538618608.699738
117712410733.520569
19454107106.624287
28976116154.697639
28854525656.902718
40412874963.105377
46320357665.192970
16317331221.595406
92598895112.484543
75153038170.195145
23123181342.683578
61886385086.752541
16075877873.983004
90379886569.547119
8543954716.958858
22850632064.592636
10061184135.061676
51305826124.085991
7022398052.919332
67193158316.129539
60069186403.539230
31795745163.526131
9349334984.041672
11383389050.828321
37617332056.036461
116948876697.181396
33447313602.903568
5028175475.359653
19476684830.093548
17497120121.263809
102836865114.463181
88010820639.729553
14667903627.451900
17151447281.642248
28200530930.918770
73190240317.997711
50420801386.665207
11741604745.359478
69153418615.764465
15525227432.788771
19124619786.695339
50720852960.211769
39834171268.003578
41003493704.295975
53128217275.135002
9833039098.726131
66853084604.546608
55175221553.393143
45355970482.780510
108363670168.789642
47650678216.402000
16435503213.639877
18709530474.356930
96859020986.840836
87926944074.916931
6873192133.348882
57576171853.108078
32940215218.207359
5345266182.173123
42649769204.036049
25207691282.247608
46694343398.410538
27265699736.844536
87824014450.402313
36566558717.694946
11973704858.614855
4264174752.497066
45114294848.846916
53417437434.575684
24009945577.336739
45770995669.348221
32102115179.561031
40283255355.689644
62431684456.693634
21410254266.962994
38387085789.005341
28343090935.477901
24588293718.384827
16606862498.851551
8131879305.590665
12367912829.181129
18333857258.162346
18763631981.044353
61777854469.646393
21495188427.126255
79637901750.008163
57630800558.862305
84237765284.627213
32985275210.358788
12286086125.114969
69795246416.011780
34933361841.041199
28911301190.157406
41669563214.069489
16718889247.728035
74913845477.466370
22007012853.331013
9169004261.383621
43199672195.182198
48519312333.200630
21573347595.104691
28262820755.572365
41494511972.650368
11867951729.422522
51836363195.926826
64624407516.868690
39356186028.259163
30323445920.948368
111908922400.652863
47517862373.956902
18636177930.227402
19169714683.098045
42044259545.823372
27228584191.485138
21225667493.121914
25686384778.211655
37965838898.462212
28751763005.570713
6415613286.874454
45399342607.684334
30040819789.949284
45477447953.339592
77279326974.121857
42880520445.072853
