# vtk DataFile Version 2.0
cantilever_tri3_mix
ASCII
DATASET POLYDATA
POINTS 297 float
0.000000 -6.000000 0.000000
48.000000 -6.000000 0.000000
48.000000 6.000000 0.000000
0.000000 6.000000 0.000000
1.500000 -6.000000 0.000000
3.000000 -6.000000 0.000000
4.500000 -6.000000 0.000000
6.000000 -6.000000 0.000000
7.500000 -6.000000 0.000000
9.000000 -6.000000 0.000000
10.500000 -6.000000 0.000000
12.000000 -6.000000 0.000000
13.500000 -6.000000 0.000000
15.000000 -6.000000 0.000000
16.500000 -6.000000 0.000000
18.000000 -6.000000 0.000000
19.500000 -6.000000 0.000000
21.000000 -6.000000 0.000000
22.500000 -6.000000 0.000000
24.000000 -6.000000 0.000000
25.500000 -6.000000 0.000000
27.000000 -6.000000 0.000000
28.500000 -6.000000 0.000000
30.000000 -6.000000 0.000000
31.500000 -6.000000 0.000000
33.000000 -6.000000 0.000000
34.500000 -6.000000 0.000000
36.000000 -6.000000 0.000000
37.500000 -6.000000 0.000000
39.000000 -6.000000 0.000000
40.500000 -6.000000 0.000000
42.000000 -6.000000 0.000000
43.500000 -6.000000 0.000000
45.000000 -6.000000 0.000000
46.500000 -6.000000 0.000000
48.000000 -4.500000 0.000000
48.000000 -3.000000 0.000000
48.000000 -1.500000 0.000000
48.000000 -0.000000 0.000000
48.000000 1.500000 0.000000
48.000000 3.000000 0.000000
48.000000 4.500000 0.000000
46.500000 6.000000 0.000000
45.000000 6.000000 0.000000
43.500000 6.000000 0.000000
42.000000 6.000000 0.000000
40.500000 6.000000 0.000000
39.000000 6.000000 0.000000
37.500000 6.000000 0.000000
36.000000 6.000000 0.000000
34.500000 6.000000 0.000000
33.000000 6.000000 0.000000
31.500000 6.000000 0.000000
30.000000 6.000000 0.000000
28.500000 6.000000 0.000000
27.000000 6.000000 0.000000
25.500000 6.000000 0.000000
24.000000 6.000000 0.000000
22.500000 6.000000 0.000000
21.000000 6.000000 0.000000
19.500000 6.000000 0.000000
18.000000 6.000000 0.000000
16.500000 6.000000 0.000000
15.000000 6.000000 0.000000
13.500000 6.000000 0.000000
12.000000 6.000000 0.000000
10.500000 6.000000 0.000000
9.000000 6.000000 0.000000
7.500000 6.000000 0.000000
6.000000 6.000000 0.000000
4.500000 6.000000 0.000000
3.000000 6.000000 0.000000
1.500000 6.000000 0.000000
0.000000 4.500000 0.000000
0.000000 3.000000 0.000000
0.000000 1.500000 0.000000
0.000000 0.000000 0.000000
0.000000 -1.500000 0.000000
0.000000 -3.000000 0.000000
0.000000 -4.500000 0.000000
1.500000 -4.500000 0.000000
1.500000 -3.000000 0.000000
1.500000 -1.500000 0.000000
1.500000 0.000000 0.000000
1.500000 1.500000 0.000000
1.500000 3.000000 0.000000
1.500000 4.500000 0.000000
3.000000 -4.500000 0.000000
3.000000 -3.000000 0.000000
3.000000 -1.500000 0.000000
3.000000 0.000000 0.000000
3.000000 1.500000 0.000000
3.000000 3.000000 0.000000
3.000000 4.500000 0.000000
4.500000 -4.500000 0.000000
4.500000 -3.000000 0.000000
4.500000 -1.500000 0.000000
4.500000 0.000000 0.000000
4.500000 1.500000 0.000000
4.500000 3.000000 0.000000
4.500000 4.500000 0.000000
6.000000 -4.500000 0.000000
6.000000 -3.000000 0.000000
6.000000 -1.500000 0.000000
6.000000 0.000000 0.000000
6.000000 1.500000 0.000000
6.000000 3.000000 0.000000
6.000000 4.500000 0.000000
7.500000 -4.500000 0.000000
7.500000 -3.000000 0.000000
7.500000 -1.500000 0.000000
7.500000 0.000000 0.000000
7.500000 1.500000 0.000000
7.500000 3.000000 0.000000
7.500000 4.500000 0.000000
9.000000 -4.500000 0.000000
9.000000 -3.000000 0.000000
9.000000 -1.500000 0.000000
9.000000 0.000000 0.000000
9.000000 1.500000 0.000000
9.000000 3.000000 0.000000
9.000000 4.500000 0.000000
10.500000 -4.500000 0.000000
10.500000 -3.000000 0.000000
10.500000 -1.500000 0.000000
10.500000 0.000000 0.000000
10.500000 1.500000 0.000000
10.500000 3.000000 0.000000
10.500000 4.500000 0.000000
12.000000 -4.500000 0.000000
12.000000 -3.000000 0.000000
12.000000 -1.500000 0.000000
12.000000 0.000000 0.000000
12.000000 1.500000 0.000000
12.000000 3.000000 0.000000
12.000000 4.500000 0.000000
13.500000 -4.500000 0.000000
13.500000 -3.000000 0.000000
13.500000 -1.500000 0.000000
13.500000 0.000000 0.000000
13.500000 1.500000 0.000000
13.500000 3.000000 0.000000
13.500000 4.500000 0.000000
15.000000 -4.500000 0.000000
15.000000 -3.000000 0.000000
15.000000 -1.500000 0.000000
15.000000 0.000000 0.000000
15.000000 1.500000 0.000000
15.000000 3.000000 0.000000
15.000000 4.500000 0.000000
16.500000 -4.500000 0.000000
16.500000 -3.000000 0.000000
16.500000 -1.500000 0.000000
16.500000 0.000000 0.000000
16.500000 1.500000 0.000000
16.500000 3.000000 0.000000
16.500000 4.500000 0.000000
18.000000 -4.500000 0.000000
18.000000 -3.000000 0.000000
18.000000 -1.500000 0.000000
18.000000 0.000000 0.000000
18.000000 1.500000 0.000000
18.000000 3.000000 0.000000
18.000000 4.500000 0.000000
19.500000 -4.500000 0.000000
19.500000 -3.000000 0.000000
19.500000 -1.500000 0.000000
19.500000 0.000000 0.000000
19.500000 1.500000 0.000000
19.500000 3.000000 0.000000
19.500000 4.500000 0.000000
21.000000 -4.500000 0.000000
21.000000 -3.000000 0.000000
21.000000 -1.500000 0.000000
21.000000 0.000000 0.000000
21.000000 1.500000 0.000000
21.000000 3.000000 0.000000
21.000000 4.500000 0.000000
22.500000 -4.500000 0.000000
22.500000 -3.000000 0.000000
22.500000 -1.500000 0.000000
22.500000 0.000000 0.000000
22.500000 1.500000 0.000000
22.500000 3.000000 0.000000
22.500000 4.500000 0.000000
24.000000 -4.500000 0.000000
24.000000 -3.000000 0.000000
24.000000 -1.500000 0.000000
24.000000 0.000000 0.000000
24.000000 1.500000 0.000000
24.000000 3.000000 0.000000
24.000000 4.500000 0.000000
25.500000 -4.500000 0.000000
25.500000 -3.000000 0.000000
25.500000 -1.500000 0.000000
25.500000 -0.000000 0.000000
25.500000 1.500000 0.000000
25.500000 3.000000 0.000000
25.500000 4.500000 0.000000
27.000000 -4.500000 0.000000
27.000000 -3.000000 0.000000
27.000000 -1.500000 0.000000
27.000000 -0.000000 0.000000
27.000000 1.500000 0.000000
27.000000 3.000000 0.000000
27.000000 4.500000 0.000000
28.500000 -4.500000 0.000000
28.500000 -3.000000 0.000000
28.500000 -1.500000 0.000000
28.500000 -0.000000 0.000000
28.500000 1.500000 0.000000
28.500000 3.000000 0.000000
28.500000 4.500000 0.000000
30.000000 -4.500000 0.000000
30.000000 -3.000000 0.000000
30.000000 -1.500000 0.000000
30.000000 -0.000000 0.000000
30.000000 1.500000 0.000000
30.000000 3.000000 0.000000
30.000000 4.500000 0.000000
31.500000 -4.500000 0.000000
31.500000 -3.000000 0.000000
31.500000 -1.500000 0.000000
31.500000 -0.000000 0.000000
31.500000 1.500000 0.000000
31.500000 3.000000 0.000000
31.500000 4.500000 0.000000
33.000000 -4.500000 0.000000
33.000000 -3.000000 0.000000
33.000000 -1.500000 0.000000
33.000000 -0.000000 0.000000
33.000000 1.500000 0.000000
33.000000 3.000000 0.000000
33.000000 4.500000 0.000000
34.500000 -4.500000 0.000000
34.500000 -3.000000 0.000000
34.500000 -1.500000 0.000000
34.500000 -0.000000 0.000000
34.500000 1.500000 0.000000
34.500000 3.000000 0.000000
34.500000 4.500000 0.000000
36.000000 -4.500000 0.000000
36.000000 -3.000000 0.000000
36.000000 -1.500000 0.000000
36.000000 -0.000000 0.000000
36.000000 1.500000 0.000000
36.000000 3.000000 0.000000
36.000000 4.500000 0.000000
37.500000 -4.500000 0.000000
37.500000 -3.000000 0.000000
37.500000 -1.500000 0.000000
37.500000 -0.000000 0.000000
37.500000 1.500000 0.000000
37.500000 3.000000 0.000000
37.500000 4.500000 0.000000
39.000000 -4.500000 0.000000
39.000000 -3.000000 0.000000
39.000000 -1.500000 0.000000
39.000000 -0.000000 0.000000
39.000000 1.500000 0.000000
39.000000 3.000000 0.000000
39.000000 4.500000 0.000000
40.500000 -4.500000 0.000000
40.500000 -3.000000 0.000000
40.500000 -1.500000 0.000000
40.500000 -0.000000 0.000000
40.500000 1.500000 0.000000
40.500000 3.000000 0.000000
40.500000 4.500000 0.000000
42.000000 -4.500000 0.000000
42.000000 -3.000000 0.000000
42.000000 -1.500000 0.000000
42.000000 -0.000000 0.000000
42.000000 1.500000 0.000000
42.000000 3.000000 0.000000
42.000000 4.500000 0.000000
43.500000 -4.500000 0.000000
43.500000 -3.000000 0.000000
43.500000 -1.500000 0.000000
43.500000 -0.000000 0.000000
43.500000 1.500000 0.000000
43.500000 3.000000 0.000000
43.500000 4.500000 0.000000
45.000000 -4.500000 0.000000
45.000000 -3.000000 0.000000
45.000000 -1.500000 0.000000
45.000000 -0.000000 0.000000
45.000000 1.500000 0.000000
45.000000 3.000000 0.000000
45.000000 4.500000 0.000000
46.500000 -4.500000 0.000000
46.500000 -3.000000 0.000000
46.500000 -1.500000 0.000000
46.500000 -0.000000 0.000000
46.500000 1.500000 0.000000
46.500000 3.000000 0.000000
46.500000 4.500000 0.000000
POLYGONS 512 2048
3 0 4 79
3 79 4 80
3 79 80 78
3 78 80 81
3 78 81 77
3 77 81 82
3 77 82 76
3 76 82 83
3 76 83 75
3 75 83 84
3 75 84 74
3 74 84 85
3 74 85 73
3 73 85 86
3 73 86 3
3 3 86 72
3 4 5 80
3 80 5 87
3 80 87 81
3 81 87 88
3 81 88 82
3 82 88 89
3 82 89 83
3 83 89 90
3 83 90 84
3 84 90 91
3 84 91 85
3 85 91 92
3 85 92 86
3 86 92 93
3 86 93 72
3 72 93 71
3 5 6 87
3 87 6 94
3 87 94 88
3 88 94 95
3 88 95 89
3 89 95 96
3 89 96 90
3 90 96 97
3 90 97 91
3 91 97 98
3 91 98 92
3 92 98 99
3 92 99 93
3 93 99 100
3 93 100 71
3 71 100 70
3 6 7 94
3 94 7 101
3 94 101 95
3 95 101 102
3 95 102 96
3 96 102 103
3 96 103 97
3 97 103 104
3 97 104 98
3 98 104 105
3 98 105 99
3 99 105 106
3 99 106 100
3 100 106 107
3 100 107 70
3 70 107 69
3 7 8 101
3 101 8 108
3 101 108 102
3 102 108 109
3 102 109 103
3 103 109 110
3 103 110 104
3 104 110 111
3 104 111 105
3 105 111 112
3 105 112 106
3 106 112 113
3 106 113 107
3 107 113 114
3 107 114 69
3 69 114 68
3 8 9 108
3 108 9 115
3 108 115 109
3 109 115 116
3 109 116 110
3 110 116 117
3 110 117 111
3 111 117 118
3 111 118 112
3 112 118 119
3 112 119 113
3 113 119 120
3 113 120 114
3 114 120 121
3 114 121 68
3 68 121 67
3 9 10 115
3 115 10 122
3 115 122 116
3 116 122 123
3 116 123 117
3 117 123 124
3 117 124 118
3 118 124 125
3 118 125 119
3 119 125 126
3 119 126 120
3 120 126 127
3 120 127 121
3 121 127 128
3 121 128 67
3 67 128 66
3 10 11 122
3 122 11 129
3 122 129 123
3 123 129 130
3 123 130 124
3 124 130 131
3 124 131 125
3 125 131 132
3 125 132 126
3 126 132 133
3 126 133 127
3 127 133 134
3 127 134 128
3 128 134 135
3 128 135 66
3 66 135 65
3 11 12 129
3 129 12 136
3 129 136 130
3 130 136 137
3 130 137 131
3 131 137 138
3 131 138 132
3 132 138 139
3 132 139 133
3 133 139 140
3 133 140 134
3 134 140 141
3 134 141 135
3 135 141 142
3 135 142 65
3 65 142 64
3 12 13 136
3 136 13 143
3 136 143 137
3 137 143 144
3 137 144 138
3 138 144 145
3 138 145 139
3 139 145 146
3 139 146 140
3 140 146 147
3 140 147 141
3 141 147 148
3 141 148 142
3 142 148 149
3 142 149 64
3 64 149 63
3 13 14 143
3 143 14 150
3 143 150 144
3 144 150 151
3 144 151 145
3 145 151 152
3 145 152 146
3 146 152 153
3 146 153 147
3 147 153 154
3 147 154 148
3 148 154 155
3 148 155 149
3 149 155 156
3 149 156 63
3 63 156 62
3 14 15 150
3 150 15 157
3 150 157 151
3 151 157 158
3 151 158 152
3 152 158 159
3 152 159 153
3 153 159 160
3 153 160 154
3 154 160 161
3 154 161 155
3 155 161 162
3 155 162 156
3 156 162 163
3 156 163 62
3 62 163 61
3 15 16 157
3 157 16 164
3 157 164 158
3 158 164 165
3 158 165 159
3 159 165 166
3 159 166 160
3 160 166 167
3 160 167 161
3 161 167 168
3 161 168 162
3 162 168 169
3 162 169 163
3 163 169 170
3 163 170 61
3 61 170 60
3 16 17 164
3 164 17 171
3 164 171 165
3 165 171 172
3 165 172 166
3 166 172 173
3 166 173 167
3 167 173 174
3 167 174 168
3 168 174 175
3 168 175 169
3 169 175 176
3 169 176 170
3 170 176 177
3 170 177 60
3 60 177 59
3 17 18 171
3 171 18 178
3 171 178 172
3 172 178 179
3 172 179 173
3 173 179 180
3 173 180 174
3 174 180 181
3 174 181 175
3 175 181 182
3 175 182 176
3 176 182 183
3 176 183 177
3 177 183 184
3 177 184 59
3 59 184 58
3 18 19 178
3 178 19 185
3 178 185 179
3 179 185 186
3 179 186 180
3 180 186 187
3 180 187 181
3 181 187 188
3 181 188 182
3 182 188 189
3 182 189 183
3 183 189 190
3 183 190 184
3 184 190 191
3 184 191 58
3 58 191 57
3 19 20 185
3 185 20 192
3 185 192 186
3 186 192 193
3 186 193 187
3 187 193 194
3 187 194 188
3 188 194 195
3 188 195 189
3 189 195 196
3 189 196 190
3 190 196 197
3 190 197 191
3 191 197 198
3 191 198 57
3 57 198 56
3 20 21 192
3 192 21 199
3 192 199 193
3 193 199 200
3 193 200 194
3 194 200 201
3 194 201 195
3 195 201 202
3 195 202 196
3 196 202 203
3 196 203 197
3 197 203 204
3 197 204 198
3 198 204 205
3 198 205 56
3 56 205 55
3 21 22 199
3 199 22 206
3 199 206 200
3 200 206 207
3 200 207 201
3 201 207 208
3 201 208 202
3 202 208 209
3 202 209 203
3 203 209 210
3 203 210 204
3 204 210 211
3 204 211 205
3 205 211 212
3 205 212 55
3 55 212 54
3 22 23 206
3 206 23 213
3 206 213 207
3 207 213 214
3 207 214 208
3 208 214 215
3 208 215 209
3 209 215 216
3 209 216 210
3 210 216 217
3 210 217 211
3 211 217 218
3 211 218 212
3 212 218 219
3 212 219 54
3 54 219 53
3 23 24 213
3 213 24 220
3 213 220 214
3 214 220 221
3 214 221 215
3 215 221 222
3 215 222 216
3 216 222 223
3 216 223 217
3 217 223 224
3 217 224 218
3 218 224 225
3 218 225 219
3 219 225 226
3 219 226 53
3 53 226 52
3 24 25 220
3 220 25 227
3 220 227 221
3 221 227 228
3 221 228 222
3 222 228 229
3 222 229 223
3 223 229 230
3 223 230 224
3 224 230 231
3 224 231 225
3 225 231 232
3 225 232 226
3 226 232 233
3 226 233 52
3 52 233 51
3 25 26 227
3 227 26 234
3 227 234 228
3 228 234 235
3 228 235 229
3 229 235 236
3 229 236 230
3 230 236 237
3 230 237 231
3 231 237 238
3 231 238 232
3 232 238 239
3 232 239 233
3 233 239 240
3 233 240 51
3 51 240 50
3 26 27 234
3 234 27 241
3 234 241 235
3 235 241 242
3 235 242 236
3 236 242 243
3 236 243 237
3 237 243 244
3 237 244 238
3 238 244 245
3 238 245 239
3 239 245 246
3 239 246 240
3 240 246 247
3 240 247 50
3 50 247 49
3 27 28 241
3 241 28 248
3 241 248 242
3 242 248 249
3 242 249 243
3 243 249 250
3 243 250 244
3 244 250 251
3 244 251 245
3 245 251 252
3 245 252 246
3 246 252 253
3 246 253 247
3 247 253 254
3 247 254 49
3 49 254 48
3 28 29 248
3 248 29 255
3 248 255 249
3 249 255 256
3 249 256 250
3 250 256 257
3 250 257 251
3 251 257 258
3 251 258 252
3 252 258 259
3 252 259 253
3 253 259 260
3 253 260 254
3 254 260 261
3 254 261 48
3 48 261 47
3 29 30 255
3 255 30 262
3 255 262 256
3 256 262 263
3 256 263 257
3 257 263 264
3 257 264 258
3 258 264 265
3 258 265 259
3 259 265 266
3 259 266 260
3 260 266 267
3 260 267 261
3 261 267 268
3 261 268 47
3 47 268 46
3 30 31 262
3 262 31 269
3 262 269 263
3 263 269 270
3 263 270 264
3 264 270 271
3 264 271 265
3 265 271 272
3 265 272 266
3 266 272 273
3 266 273 267
3 267 273 274
3 267 274 268
3 268 274 275
3 268 275 46
3 46 275 45
3 31 32 269
3 269 32 276
3 269 276 270
3 270 276 277
3 270 277 271
3 271 277 278
3 271 278 272
3 272 278 279
3 272 279 273
3 273 279 280
3 273 280 274
3 274 280 281
3 274 281 275
3 275 281 282
3 275 282 45
3 45 282 44
3 32 33 276
3 276 33 283
3 276 283 277
3 277 283 284
3 277 284 278
3 278 284 285
3 278 285 279
3 279 285 286
3 279 286 280
3 280 286 287
3 280 287 281
3 281 287 288
3 281 288 282
3 282 288 289
3 282 289 44
3 44 289 43
3 33 34 283
3 283 34 290
3 283 290 284
3 284 290 291
3 284 291 285
3 285 291 292
3 285 292 286
3 286 292 293
3 286 293 287
3 287 293 294
3 287 294 288
3 288 294 295
3 288 295 289
3 289 295 296
3 289 296 43
3 43 296 42
3 34 1 290
3 290 1 35
3 290 35 291
3 291 35 36
3 291 36 292
3 292 36 37
3 292 37 293
3 293 37 38
3 293 38 294
3 294 38 39
3 294 39 295
3 295 39 40
3 295 40 296
3 296 40 41
3 296 41 42
3 42 41 2
POINT_DATA 297
SCALARS PRESSURE float 1
LOOKUP_TABLE default
6073056468.241007
-31487889357.295563
23870808038.880714
-33591085598.878098
16269555293.291430
-38161433154.064667
22240072461.906239
-34899532786.535843
20225466852.803658
-46579286833.178703
24881168589.775215
-38309518265.310562
23005462463.425285
-53980128517.853477
23005846634.263550
-23780253638.803055
27992866261.729092
-37713321018.825577
28263562731.974617
-7683204914.594087
33588330060.978153
-27643996459.686764
40676220432.424583
-15687533040.245176
29895440894.759846
-29657279233.318436
39291596824.513397
-17326318530.200455
36544713594.603088
-26690193429.757854
54361336806.243042
-25735290362.532639
13039195167.175930
-32063989072.966988
33926830818.167828
-25151615677.431252
14012271332.811726
-35152426062.839241
26755083704.876225
-28396669509.723473
23633262393.854164
-31333168420.381531
30413527464.518940
-32503733509.127762
17459465288.464973
-43883421844.874519
36520139611.178246
-21458167140.040745
20437181417.484272
-32366586340.193386
29793493414.313404
-17118124573.861233
25907247392.829247
-24844778761.797470
29690288762.605900
-26035127557.209953
25999510421.862526
-27208329724.434326
34157243290.301403
-22492954897.973595
23527569463.827328
-32439118914.066326
43520754944.239761
-22994638714.266655
15412218584.054623
-30213258439.841152
27454335946.866180
-19777999010.189255
22615084138.114578
-28674442708.708378
25185162055.427933
-23805424895.841640
25334277033.289234
-28227826273.948433
29962170849.856739
-25464986545.042732
21922418047.853184
-35175217097.883125
37970470297.908058
-20482164724.519360
16263686321.416109
-27658828815.333298
28824132581.094048
-18317146711.290703
20896004301.948463
-25679672233.396030
26814505108.105293
-23347548881.356590
24566892404.863487
-26836754309.386391
29830085120.378521
-22907805154.360806
21571800624.560482
-33175911600.396629
37403314471.362122
-20102135902.920414
13367833655.887230
-27006126279.106560
25893033091.202164
-18306123129.643101
20408323385.467213
-24953556711.215233
24520928344.774609
-23335776775.449253
22888219540.673618
-25797734831.663506
28916618394.403145
-22668434389.889717
20930206427.930538
-32171691591.503502
36076476920.920288
-19278711041.895222
15016666383.166599
-25735731457.709106
24502116597.277050
-17144696979.777382
20041474283.436676
-23845531741.126442
23574799023.984383
-21814864731.086731
22588967733.221264
-25066777029.713505
27501407188.563648
-22164449114.309677
19914428842.900852
-30810275699.147190
34756725773.769531
-18893232624.487335
13119393471.831200
-24133806488.806236
23870623945.074024
-16407010515.005573
18821649135.140778
-22900277446.577522
22776360942.284786
-20946009422.358604
21539359049.729053
-24038755073.859055
26251444228.518379
-21155480139.446259
19567623197.705559
-29726149075.397923
33581585553.542145
-18086079286.616127
12938446957.966705
-23050964496.114677
22761760027.593174
-15483881076.991827
18196370360.047493
-21354864897.455120
22056919436.251896
-20039892479.746651
20969795116.492458
-22591251539.969013
25573124263.018650
-20256094080.045769
18579038462.954727
-28796775602.285221
32232133090.903107
-17407742679.517437
11891463244.587618
-21865722194.313534
21350372840.233498
-14903581058.806330
17429482004.047199
-20517670111.179840
20572164998.180424
-19345435507.520172
19940416471.082825
-21927818937.645054
24492676434.997520
-19101412271.428635
17877244011.362206
-27656757792.780968
31121385508.648895
-16695204374.037731
11578755119.587774
-20650191421.717010
20208401468.462147
-14132551162.586880
16561670252.921923
-19553480086.381828
19607194103.318882
-18440120200.203518
18774174885.527939
-21186279385.107479
23438599618.564766
-18319853138.891537
16860602982.402636
-26790758795.233616
29715001051.711155
-15979441351.759085
10648276998.904114
-19421056216.196835
19103960611.922634
-13397561743.955488
15551777745.804031
-18605206639.757618
18666011452.398228
-17504138024.449883
17831659818.572826
-20021204097.376560
22573582714.090439
-17428120871.690655
16094465428.676121
-25560684376.670799
28602821338.797253
-15362099717.826765
10058428880.762533
-18290646082.233040
17992097031.662342
-12501152852.957897
14654751659.358831
-17639756019.256546
17633905305.701771
-16537364403.480316
17055999982.247654
-18960920804.185368
21494660195.375786
-16692374141.232973
15310370876.888849
-24255860284.105015
27477112635.440388
-14617311309.630182
9213635867.265558
-16888856892.851032
17054875954.982880
-11744802451.462317
13781782329.474331
-16415933833.782814
16746557578.618202
-15613510084.794935
16247354713.550854
-17900524896.956757
20439858869.224506
-15731068073.343067
14726170744.755899
-23175061047.913326
26198037058.995449
-13897637946.360645
8743706605.836184
-15679077706.957241
15836711819.457922
-10921484378.950399
13097562965.405344
-15274007201.666368
15752159009.374733
-14777469667.944553
15315872483.167105
-16832228434.007130
19407702234.427746
-15089485725.220463
13888777588.961222
-21921049479.299953
24978690361.037327
-13346475626.668753
8078638766.231703
-14458035031.027472
14653477644.478296
-10231292524.154480
12283126430.439461
-14289233059.716759
14727430120.302462
-13735480920.798153
14510131976.551044
-15880496706.816874
18162663886.651405
-14338745759.799261
13264132281.322367
-20654486787.888832
23704166856.954250
-12791026106.082296
7399192691.585735
-13286074850.569883
13409589257.237448
-9585445685.022966
11231084204.845398
-13415048428.488199
13744756320.046335
-12843191503.033798
13574376784.577034
-14863078413.542511
16971693733.319031
-13658957960.260532
12513326820.547592
-19464359926.188419
22431284887.001259
-12080075579.419136
6736526015.037072
-12100340909.566895
12325234743.299850
-8707059659.249222
10307773376.579611
-12435156647.091204
12722852501.440292
-11950196981.112005
12684519266.361284
-13965327984.710423
15842844219.112299
-12642264018.339710
11898677054.290247
-18343542332.311417
21185758181.832092
-11385428286.624962
5896452179.736194
-10773496023.047661
11378690114.799812
-7884576591.960938
9584678059.794289
-11151464303.847799
11882109841.643473
-11075649348.251118
11689930073.692419
-12899595645.576418
14899048855.615664
-11913232591.644033
11107415181.396070
-17191130474.884285
19909590999.589798
-10744661483.965462
5242675130.236270
-9505996412.846087
10054212554.235483
-7337345498.732405
8720812710.065311
-10132848616.865459
10786889813.268278
-10175027257.555307
10811489690.311981
-11882051004.454588
13730448320.076153
-11096424751.092949
10435954768.669680
-15913434425.142441
18729800657.921371
-10170438549.442188
4882891029.619470
-8351587582.291030
8790262321.135387
-6522231395.627907
7899781234.291890
-9107734474.717649
9833496190.508068
-9090570365.748182
10061583272.510448
-10801437431.733320
12655855818.921671
-10457956861.973736
9660486977.098141
-14695865107.256527
17490981444.272194
-9495893736.599001
4016661879.250385
-7094176596.213309
7768058202.666578
-5691600829.159765
7000955721.000852
-8138326749.259153
8833680298.822266
-8297493484.229599
9117742877.726109
-10056960461.512274
11376202671.637743
-9220978002.285751
9023147706.004602
-13683656717.315844
16264761946.035524
-8811942734.991985
3329018843.348677
-5799339499.962295
6727465512.345932
-4941986269.821054
6216419533.592180
-6931568163.010380
7869871524.029672
-7486409970.098163
7995784261.118827
-8936514077.921495
10739211727.790602
-8419800004.488987
8036529838.075859
-12791884264.734995
14975689886.794975
-7856545706.477288
2681067715.244761
-4680103397.535979
5386280089.586382
-4320146019.312237
5350546095.967767
-5933372744.488529
6831679757.316640
-6451874989.749944
7213547155.362184
-8130443411.061085
9679848008.558107
-7108755701.424204
7234990588.345932
-11902676233.498686
13762235680.981411
-7276481891.265495
2088579263.436103
-3336607938.393563
4323997604.953136
-3489714621.131424
4514746426.731836
-4911071249.915810
5833482040.996504
-5602953024.675211
6054710946.460017
-6980063805.157335
9034425857.574759
-6640039930.610682
6303807583.763795
-10528732093.297892
12557172610.739967
-6514866475.740808
1328723737.973440
-2253226991.022657
3115192566.708389
-2677849343.162933
3713881095.290265
-3832060311.681848
4984223375.502966
-4539903314.406806
5376179965.431594
-5971702859.686194
7494836553.594253
-6049782687.435418
5647858716.258138
-9020730249.630362
11503298790.558012
-6493365147.261418
754375846.472175
-882176145.216009
2094004630.730816
-2021816637.528965
2592468441.706721
-2898096609.895728
3837197751.710448
-3904596865.112978
4501176014.856017
-4853841450.906530
6328525544.436214
-5115309388.463449
5154093825.858036
-7929185418.924294
10124040346.432608
-4956678597.199003
-83337990.507448
334750450.583569
1096158121.241822
-1198856797.069797
2121354803.382140
-1387995750.778373
2808499978.403498
-3063976395.402682
3671267437.321654
-3869694253.542420
5319700537.293262
-4268532372.401837
4158336277.276766
-7038658828.867171
8827958302.014954
-5350684088.371474
-419169796.322115
1065677924.162742
-739247579.922344
-440827601.844277
1152234890.089561
-974923419.380901
1673776463.009320
-1955263243.218638
2595818139.215738
-2972184568.066304
4483548273.197014
-3002421105.469098
3691644376.381916
-5591517530.892059
7802780460.866974
-3200900567.331843
-1319110915.452186
3063762678.109952
-635462007.558865
812464354.534358
233336825.217516
362772560.872694
1229935015.576509
-918555365.015361
1759842973.752085
-2131240359.697709
3290532125.236995
-2913946893.360616
2148431959.394028
-5201611416.938178
6006625339.044517
-4139219195.675169
-1323581645.056980
1315433016.882686
-3169501925.737597
1424843250.419819
-822826262.495013
189124187.305926
-600658601.297119
584568495.819174
1153512464.953665
-1654130562.269244
2289429974.166227
-179771494.138132
2949756701.663057
-3229813725.657129
5248096688.405902
-1099667009.013179
