# vtk DataFile Version 2.0
patchtest_tri3_mix
ASCII
DATASET POLYDATA
POINTS 26 float
0.000000 -0.500000 0.000000
1.000000 -0.500000 0.000000
1.000000 0.500000 0.000000
0.000000 0.500000 0.000000
0.250000 -0.500000 0.000000
0.500000 -0.500000 0.000000
0.750000 -0.500000 0.000000
1.000000 -0.250000 0.000000
1.000000 -0.000000 0.000000
1.000000 0.250000 0.000000
0.750000 0.500000 0.000000
0.500000 0.500000 0.000000
0.250000 0.500000 0.000000
0.000000 0.250000 0.000000
0.000000 0.000000 0.000000
0.000000 -0.250000 0.000000
0.638121 -0.199235 0.000000
0.197558 0.320733 0.000000
0.429806 0.269892 0.000000
0.232605 0.109726 0.000000
0.675782 0.265831 0.000000
0.279966 -0.309040 0.000000
0.755242 0.032161 0.000000
0.816038 -0.309795 0.000000
0.484716 0.017985 0.000000
0.235949 -0.107150 0.000000
POLYGONS 34 136
3 15 0 21
3 14 15 25
3 15 21 25
3 21 0 4
3 24 21 16
3 25 21 24
3 14 25 19
3 13 17 3
3 17 13 19
3 3 17 12
3 19 24 18
3 24 19 25
3 12 18 11
3 12 17 18
3 24 20 18
3 18 17 19
3 13 14 19
3 21 4 5
3 5 6 16
3 16 6 23
3 24 16 22
3 23 1 7
3 1 23 6
3 16 23 22
3 22 23 7
3 11 20 10
3 18 20 11
3 10 20 9
3 22 8 9
3 8 22 7
3 2 10 9
3 9 20 22
3 22 20 24
3 16 21 5
POINT_DATA 26
SCALARS P float 1
LOOKUP_TABLE default
1391.888620
59.047525
60.768171
-1484.028873
697.170888
517.150785
-144.451466
-196.817312
56.468274
49.690532
-190.314322
-101.137295
-921.184771
-137.290939
139.723257
-425.540250
-11.978118
1325.088595
-159.915866
-1139.697620
3.955381
-551.931584
-39.530204
234.054052
52.780650
974.698473
