# vtk DataFile Version 2.0
patchtest_tri3_mix
ASCII
DATASET POLYDATA
POINTS 98 float
0.000000 0.000000 0.000000
1.000000 0.000000 0.000000
1.000000 1.000000 0.000000
0.000000 1.000000 0.000000
0.125000 0.000000 0.000000
0.250000 0.000000 0.000000
0.375000 0.000000 0.000000
0.500000 0.000000 0.000000
0.625000 0.000000 0.000000
0.750000 0.000000 0.000000
0.875000 0.000000 0.000000
1.000000 0.125000 0.000000
1.000000 0.250000 0.000000
1.000000 0.375000 0.000000
1.000000 0.500000 0.000000
1.000000 0.625000 0.000000
1.000000 0.750000 0.000000
1.000000 0.875000 0.000000
0.875000 1.000000 0.000000
0.750000 1.000000 0.000000
0.625000 1.000000 0.000000
0.500000 1.000000 0.000000
0.375000 1.000000 0.000000
0.250000 1.000000 0.000000
0.125000 1.000000 0.000000
0.000000 0.875000 0.000000
0.000000 0.750000 0.000000
0.000000 0.625000 0.000000
0.000000 0.500000 0.000000
0.000000 0.375000 0.000000
0.000000 0.250000 0.000000
0.000000 0.125000 0.000000
0.376749 0.380766 0.000000
0.263091 0.192325 0.000000
0.481152 0.698643 0.000000
0.292264 0.790223 0.000000
0.296002 0.449089 0.000000
0.192568 0.617626 0.000000
0.312729 0.569489 0.000000
0.749469 0.216546 0.000000
0.754307 0.545251 0.000000
0.204463 0.878135 0.000000
0.908162 0.428367 0.000000
0.625853 0.204611 0.000000
0.816236 0.896385 0.000000
0.713065 0.424211 0.000000
0.437260 0.290392 0.000000
0.874184 0.216903 0.000000
0.305728 0.301813 0.000000
0.799641 0.108848 0.000000
0.405450 0.487086 0.000000
0.323851 0.898242 0.000000
0.372717 0.683671 0.000000
0.098034 0.804163 0.000000
0.557511 0.606173 0.000000
0.592639 0.712287 0.000000
0.906085 0.102701 0.000000
0.205999 0.381332 0.000000
0.791905 0.653851 0.000000
0.564207 0.099998 0.000000
0.401735 0.794844 0.000000
0.101360 0.439104 0.000000
0.705498 0.738572 0.000000
0.502599 0.196817 0.000000
0.109109 0.197037 0.000000
0.200607 0.504069 0.000000
0.514864 0.805828 0.000000
0.443977 0.901481 0.000000
0.557929 0.299730 0.000000
0.600856 0.407204 0.000000
0.097680 0.682796 0.000000
0.189568 0.749140 0.000000
0.674192 0.628287 0.000000
0.088204 0.088941 0.000000
0.804237 0.333412 0.000000
0.095372 0.910846 0.000000
0.805854 0.775753 0.000000
0.905853 0.815411 0.000000
0.638893 0.517640 0.000000
0.097616 0.319810 0.000000
0.318158 0.095801 0.000000
0.685089 0.104435 0.000000
0.440092 0.098571 0.000000
0.522192 0.500447 0.000000
0.899119 0.690973 0.000000
0.273078 0.680107 0.000000
0.884851 0.560979 0.000000
0.566450 0.907120 0.000000
0.194258 0.269491 0.000000
0.679310 0.312528 0.000000
0.196089 0.104829 0.000000
0.697659 0.896535 0.000000
0.096467 0.559808 0.000000
0.487112 0.394390 0.000000
0.814347 0.457255 0.000000
0.377767 0.197511 0.000000
0.439388 0.590744 0.000000
0.627307 0.815606 0.000000
POLYGONS 162 648
3 0 73 31
3 73 0 4
3 31 73 64
3 73 90 64
3 90 73 4
3 90 4 5
3 88 64 33
3 31 64 30
3 30 79 29
3 30 64 79
3 29 79 61
3 79 57 61
3 57 79 88
3 48 57 88
3 65 61 57
3 64 88 79
3 29 61 28
3 33 64 90
3 80 33 90
3 80 5 6
3 33 80 95
3 80 90 5
3 82 95 80
3 82 6 7
3 46 95 63
3 82 80 6
3 33 95 48
3 36 48 32
3 36 57 48
3 32 48 46
3 36 32 50
3 32 93 50
3 93 32 46
3 68 93 46
3 96 50 83
3 48 95 46
3 65 57 36
3 63 95 82
3 48 88 33
3 38 36 50
3 28 92 27
3 37 92 65
3 27 92 70
3 70 37 71
3 37 70 92
3 71 37 85
3 27 70 26
3 28 61 92
3 53 70 71
3 25 26 53
3 3 25 75
3 75 53 41
3 53 75 25
3 24 75 41
3 75 24 3
3 26 70 53
3 41 53 71
3 38 85 37
3 65 36 38
3 85 38 52
3 35 71 85
3 52 96 34
3 96 52 38
3 54 34 96
3 85 52 35
3 50 96 38
3 60 52 34
3 23 41 51
3 41 71 35
3 51 41 35
3 41 23 24
3 51 60 67
3 60 51 35
3 22 67 21
3 67 22 51
3 67 60 66
3 51 22 23
3 35 52 60
3 60 34 66
3 37 65 38
3 61 65 92
3 83 50 93
3 59 63 82
3 59 7 8
3 43 63 59
3 63 68 46
3 8 9 81
3 39 81 49
3 8 81 59
3 43 59 81
3 69 68 89
3 43 68 63
3 89 68 43
3 69 93 68
3 45 89 74
3 39 89 43
3 74 89 39
3 89 45 69
3 43 81 39
3 78 69 45
3 81 9 49
3 93 69 83
3 47 49 56
3 10 49 9
3 56 49 10
3 47 74 39
3 56 1 11
3 1 56 10
3 56 11 47
3 47 11 12
3 74 42 94
3 42 74 13
3 86 94 42
3 74 94 45
3 13 74 47
3 13 14 42
3 47 12 13
3 86 42 14
3 47 39 49
3 40 45 94
3 54 55 34
3 54 83 78
3 55 54 72
3 34 55 66
3 72 62 55
3 72 78 40
3 62 72 58
3 72 54 78
3 83 69 78
3 55 62 97
3 67 87 21
3 66 87 67
3 87 66 97
3 21 87 20
3 87 91 20
3 91 87 97
3 91 97 62
3 20 91 19
3 66 55 97
3 62 76 91
3 83 54 96
3 40 86 58
3 40 78 45
3 58 86 84
3 76 62 58
3 84 15 16
3 15 84 86
3 58 84 76
3 86 14 15
3 77 84 16
3 91 44 19
3 91 76 44
3 44 76 77
3 19 44 18
3 77 17 18
3 17 77 16
3 2 18 17
3 77 18 44
3 76 84 77
3 58 72 40
3 94 86 40
3 82 7 59
POINT_DATA 98
SCALARS P float 1
LOOKUP_TABLE default
2996.570127
-3.069746
4.159350
-3035.648755
2641.724023
2246.497400
1876.087966
1495.023775
1118.268241
740.839434
367.214481
15.389667
-5.449053
16.955936
0.790156
-4.523695
-13.546330
-5.844804
-390.241898
-772.252049
-1151.279074
-1534.278948
-1907.783638
-2275.620594
-2671.532596
-2142.554192
-1444.417439
-698.248139
36.916638
783.281510
1512.765150
2267.364664
450.470526
1353.939184
-613.074747
-1244.207685
209.132896
-555.651090
-285.041046
424.331854
-63.436259
-1774.825304
31.472473
660.456699
-418.885906
128.638146
705.577617
214.733895
816.647879
477.817233
48.842437
-1588.488098
-675.219259
-1687.302171
-280.498522
-508.500965
217.047330
570.638862
-192.237587
1045.392973
-1057.261199
313.014131
-408.736303
901.874666
1607.129988
-7.901640
-895.630998
-1310.573966
531.333092
222.587080
-1004.632686
-1174.488645
-252.302965
2199.776091
195.011430
-2198.290681
-331.792782
-167.861977
-35.258082
951.467612
1643.464973
748.014024
1342.065931
1.147532
-106.558601
-791.197821
-40.654898
-1025.483730
1119.652091
361.808995
1902.514087
-701.327805
-345.269388
322.523908
51.136052
1129.126808
-305.469769
-716.309192
