# vtk DataFile Version 2.0
patchtest_tri3_mix
ASCII
DATASET POLYDATA
POINTS 460 float
0.000000 0.000000 0.000000
1.000000 0.000000 0.000000
1.000000 1.000000 0.000000
0.000000 1.000000 0.000000
0.052632 0.000000 0.000000
0.105263 0.000000 0.000000
0.157895 0.000000 0.000000
0.210526 0.000000 0.000000
0.263158 0.000000 0.000000
0.315789 0.000000 0.000000
0.368421 0.000000 0.000000
0.421053 0.000000 0.000000
0.473684 0.000000 0.000000
0.526316 0.000000 0.000000
0.578947 0.000000 0.000000
0.631579 0.000000 0.000000
0.684211 0.000000 0.000000
0.736842 0.000000 0.000000
0.789474 0.000000 0.000000
0.842105 0.000000 0.000000
0.894737 0.000000 0.000000
0.947368 0.000000 0.000000
1.000000 0.052632 0.000000
1.000000 0.105263 0.000000
1.000000 0.157895 0.000000
1.000000 0.210526 0.000000
1.000000 0.263158 0.000000
1.000000 0.315789 0.000000
1.000000 0.368421 0.000000
1.000000 0.421053 0.000000
1.000000 0.473684 0.000000
1.000000 0.526316 0.000000
1.000000 0.578947 0.000000
1.000000 0.631579 0.000000
1.000000 0.684211 0.000000
1.000000 0.736842 0.000000
1.000000 0.789474 0.000000
1.000000 0.842105 0.000000
1.000000 0.894737 0.000000
1.000000 0.947368 0.000000
0.947368 1.000000 0.000000
0.894737 1.000000 0.000000
0.842105 1.000000 0.000000
0.789474 1.000000 0.000000
0.736842 1.000000 0.000000
0.684211 1.000000 0.000000
0.631579 1.000000 0.000000
0.578947 1.000000 0.000000
0.526316 1.000000 0.000000
0.473684 1.000000 0.000000
0.421053 1.000000 0.000000
0.368421 1.000000 0.000000
0.315789 1.000000 0.000000
0.263158 1.000000 0.000000
0.210526 1.000000 0.000000
0.157895 1.000000 0.000000
0.105263 1.000000 0.000000
0.052632 1.000000 0.000000
0.000000 0.947368 0.000000
0.000000 0.894737 0.000000
0.000000 0.842105 0.000000
0.000000 0.789474 0.000000
0.000000 0.736842 0.000000
0.000000 0.684211 0.000000
0.000000 0.631579 0.000000
0.000000 0.578947 0.000000
0.000000 0.526316 0.000000
0.000000 0.473684 0.000000
0.000000 0.421053 0.000000
0.000000 0.368421 0.000000
0.000000 0.315789 0.000000
0.000000 0.263158 0.000000
0.000000 0.210526 0.000000
0.000000 0.157895 0.000000
0.000000 0.105263 0.000000
0.000000 0.052632 0.000000
0.333168 0.185255 0.000000
0.359512 0.472971 0.000000
0.724881 0.262206 0.000000
0.954976 0.707975 0.000000
0.656087 0.953536 0.000000
0.822195 0.240874 0.000000
0.045522 0.605462 0.000000
0.325882 0.335931 0.000000
0.137821 0.288880 0.000000
0.402691 0.553853 0.000000
0.092048 0.314724 0.000000
0.315098 0.605082 0.000000
0.655957 0.045724 0.000000
0.762197 0.866297 0.000000
0.854723 0.553097 0.000000
0.673797 0.847608 0.000000
0.377047 0.317402 0.000000
0.184411 0.367032 0.000000
0.910752 0.050559 0.000000
0.910494 0.729479 0.000000
0.045608 0.086272 0.000000
0.617352 0.530918 0.000000
0.952055 0.393399 0.000000
0.578664 0.873333 0.000000
0.817694 0.471755 0.000000
0.091515 0.419851 0.000000
0.500365 0.951384 0.000000
0.280112 0.186320 0.000000
0.538708 0.844862 0.000000
0.181876 0.877394 0.000000
0.181872 0.471912 0.000000
0.663520 0.324915 0.000000
0.305872 0.140207 0.000000
0.091498 0.211336 0.000000
0.090702 0.845221 0.000000
0.177145 0.186122 0.000000
0.229906 0.764756 0.000000
0.715990 0.692234 0.000000
0.709243 0.042294 0.000000
0.513772 0.561178 0.000000
0.144215 0.234774 0.000000
0.182091 0.954969 0.000000
0.454767 0.432928 0.000000
0.090832 0.578943 0.000000
0.182392 0.684717 0.000000
0.090889 0.525769 0.000000
0.183819 0.269449 0.000000
0.533199 0.088323 0.000000
0.138147 0.816141 0.000000
0.831118 0.189803 0.000000
0.908547 0.575322 0.000000
0.724503 0.827202 0.000000
0.810956 0.523045 0.000000
0.664815 0.706045 0.000000
0.909514 0.831491 0.000000
0.045572 0.499583 0.000000
0.754209 0.159760 0.000000
0.637757 0.809955 0.000000
0.363202 0.910991 0.000000
0.815078 0.094321 0.000000
0.729597 0.083695 0.000000
0.419590 0.912968 0.000000
0.444840 0.682306 0.000000
0.860621 0.499958 0.000000
0.179024 0.046678 0.000000
0.313893 0.900483 0.000000
0.279814 0.094025 0.000000
0.181105 0.525218 0.000000
0.913360 0.208222 0.000000
0.714013 0.873543 0.000000
0.719102 0.502864 0.000000
0.573097 0.299821 0.000000
0.909492 0.628436 0.000000
0.802274 0.574805 0.000000
0.864641 0.446115 0.000000
0.045516 0.552504 0.000000
0.126862 0.954363 0.000000
0.279554 0.316783 0.000000
0.309370 0.046718 0.000000
0.907755 0.472326 0.000000
0.479135 0.718016 0.000000
0.231548 0.337429 0.000000
0.321846 0.713127 0.000000
0.253286 0.139884 0.000000
0.862250 0.858047 0.000000
0.634385 0.235997 0.000000
0.361556 0.629682 0.000000
0.610970 0.145187 0.000000
0.185607 0.833934 0.000000
0.252121 0.233012 0.000000
0.953126 0.498881 0.000000
0.641725 0.427285 0.000000
0.045590 0.658432 0.000000
0.592186 0.441163 0.000000
0.092718 0.155802 0.000000
0.229613 0.391170 0.000000
0.185443 0.316586 0.000000
0.905147 0.525630 0.000000
0.482781 0.091220 0.000000
0.503345 0.044520 0.000000
0.237586 0.955191 0.000000
0.483777 0.280630 0.000000
0.948984 0.912774 0.000000
0.953824 0.656601 0.000000
0.526216 0.900294 0.000000
0.866414 0.599602 0.000000
0.563165 0.351817 0.000000
0.452437 0.046603 0.000000
0.769222 0.108397 0.000000
0.873631 0.180424 0.000000
0.289856 0.951588 0.000000
0.714685 0.312166 0.000000
0.553066 0.596713 0.000000
0.625300 0.909944 0.000000
0.447738 0.955092 0.000000
0.075936 0.955605 0.000000
0.912132 0.781299 0.000000
0.630264 0.479167 0.000000
0.444911 0.247764 0.000000
0.613063 0.337877 0.000000
0.577737 0.685106 0.000000
0.465260 0.140048 0.000000
0.047392 0.871065 0.000000
0.747671 0.589709 0.000000
0.091131 0.685232 0.000000
0.199146 0.140074 0.000000
0.270084 0.578721 0.000000
0.863993 0.954982 0.000000
0.888611 0.910804 0.000000
0.785350 0.199550 0.000000
0.816993 0.668668 0.000000
0.045749 0.817377 0.000000
0.137617 0.393098 0.000000
0.707985 0.553549 0.000000
0.045697 0.446755 0.000000
0.334662 0.282620 0.000000
0.699901 0.175525 0.000000
0.046075 0.237415 0.000000
0.706995 0.952834 0.000000
0.903590 0.416356 0.000000
0.642470 0.618173 0.000000
0.369111 0.742602 0.000000
0.565740 0.545615 0.000000
0.234071 0.817788 0.000000
0.315892 0.657436 0.000000
0.955109 0.132224 0.000000
0.389965 0.269815 0.000000
0.595845 0.196358 0.000000
0.315574 0.817502 0.000000
0.401314 0.501939 0.000000
0.092167 0.105577 0.000000
0.954638 0.289448 0.000000
0.604085 0.956907 0.000000
0.453199 0.629984 0.000000
0.091138 0.472714 0.000000
0.861940 0.086370 0.000000
0.806237 0.146800 0.000000
0.314549 0.552416 0.000000
0.485702 0.521947 0.000000
0.275393 0.792234 0.000000
0.358465 0.681800 0.000000
0.045757 0.711418 0.000000
0.225615 0.551855 0.000000
0.577949 0.102396 0.000000
0.904318 0.364627 0.000000
0.811683 0.861800 0.000000
0.320762 0.764728 0.000000
0.914384 0.952863 0.000000
0.180568 0.093278 0.000000
0.232602 0.283376 0.000000
0.331039 0.093941 0.000000
0.393055 0.954902 0.000000
0.866689 0.805569 0.000000
0.628037 0.862896 0.000000
0.755626 0.348809 0.000000
0.360522 0.797900 0.000000
0.650857 0.757692 0.000000
0.043975 0.922034 0.000000
0.271649 0.471329 0.000000
0.384892 0.183303 0.000000
0.952996 0.341635 0.000000
0.090920 0.632105 0.000000
0.956323 0.863080 0.000000
0.364068 0.420149 0.000000
0.404849 0.651615 0.000000
0.144922 0.137090 0.000000
0.091934 0.367189 0.000000
0.045867 0.394049 0.000000
0.410759 0.600479 0.000000
0.403771 0.047038 0.000000
0.136879 0.445824 0.000000
0.864509 0.653023 0.000000
0.046703 0.288908 0.000000
0.397731 0.828523 0.000000
0.955201 0.812620 0.000000
0.091546 0.738434 0.000000
0.369658 0.368049 0.000000
0.591271 0.633026 0.000000
0.753320 0.729380 0.000000
0.045865 0.134716 0.000000
0.229292 0.093938 0.000000
0.602803 0.389394 0.000000
0.501135 0.807039 0.000000
0.694505 0.603845 0.000000
0.274472 0.686142 0.000000
0.715642 0.128993 0.000000
0.906088 0.102892 0.000000
0.532150 0.507539 0.000000
0.045952 0.341473 0.000000
0.135975 0.552146 0.000000
0.583547 0.247896 0.000000
0.132731 0.043609 0.000000
0.091902 0.791835 0.000000
0.701061 0.742658 0.000000
0.358756 0.139221 0.000000
0.783453 0.770391 0.000000
0.601012 0.773208 0.000000
0.136284 0.498870 0.000000
0.275186 0.738685 0.000000
0.228740 0.184849 0.000000
0.491996 0.227182 0.000000
0.227521 0.659170 0.000000
0.358265 0.526768 0.000000
0.629627 0.094787 0.000000
0.225812 0.605510 0.000000
0.150938 0.913851 0.000000
0.343846 0.855958 0.000000
0.355834 0.047237 0.000000
0.406290 0.222564 0.000000
0.953895 0.550770 0.000000
0.201819 0.229019 0.000000
0.735062 0.913513 0.000000
0.858711 0.332416 0.000000
0.821322 0.813789 0.000000
0.774474 0.250192 0.000000
0.442252 0.534427 0.000000
0.555288 0.046072 0.000000
0.656010 0.567479 0.000000
0.544321 0.209014 0.000000
0.523370 0.315163 0.000000
0.815388 0.046511 0.000000
0.413511 0.143672 0.000000
0.383315 0.094938 0.000000
0.825483 0.421348 0.000000
0.087110 0.052013 0.000000
0.184861 0.787071 0.000000
0.262884 0.906530 0.000000
0.559049 0.156013 0.000000
0.779868 0.628519 0.000000
0.647549 0.185810 0.000000
0.954477 0.603489 0.000000
0.270367 0.525149 0.000000
0.680620 0.088907 0.000000
0.549530 0.955157 0.000000
0.439627 0.865810 0.000000
0.735653 0.779059 0.000000
0.805968 0.719490 0.000000
0.628197 0.669492 0.000000
0.906851 0.681206 0.000000
0.492285 0.664638 0.000000
0.911051 0.876866 0.000000
0.389816 0.873303 0.000000
0.686241 0.794935 0.000000
0.760068 0.539599 0.000000
0.857384 0.706026 0.000000
0.736445 0.211160 0.000000
0.815372 0.290879 0.000000
0.603870 0.049644 0.000000
0.183329 0.736493 0.000000
0.270824 0.632117 0.000000
0.773674 0.818838 0.000000
0.813767 0.954017 0.000000
0.502313 0.612207 0.000000
0.513065 0.366650 0.000000
0.276849 0.366006 0.000000
0.663179 0.136691 0.000000
0.864144 0.043006 0.000000
0.589155 0.824702 0.000000
0.136871 0.711430 0.000000
0.574967 0.916434 0.000000
0.045993 0.764391 0.000000
0.180906 0.578698 0.000000
0.691599 0.413346 0.000000
0.094358 0.261512 0.000000
0.955758 0.760013 0.000000
0.828251 0.763716 0.000000
0.461158 0.577668 0.000000
0.541075 0.648397 0.000000
0.449191 0.817698 0.000000
0.355827 0.232135 0.000000
0.910793 0.261048 0.000000
[...]
POINT_DATA 460
SCALARS P float 1
LOOKUP_TABLE default
472122320.390821
2518434751.188847
7064269872.679325
3156506116.554848
558049183.992943
626808526.747840
703474812.744774
783990751.487465
869025439.564151
958467324.274211
1052123458.915790
1150327199.794461
1252499626.029274
1359575070.487723
1470962194.531581
1585711067.714223
1706991411.555529
1830487141.414877
1958952093.920379
2092847048.058266
2229759941.198194
2371531021.765690
2698995289.221699
2890633445.413731
3085614733.016642
3289269998.566736
3497998501.054423
3713772566.399181
3936069550.620765
4164917131.907246
4399451341.054022
4641473859.704849
4889375747.521706
5143639784.170651
5404997817.601585
5672172435.418385
5946147323.764474
6226702892.896523
6512979065.200334
6811980491.709986
6865628878.458889
6616757634.288519
6378838422.569832
6144891339.030250
5914606675.289286
5689739845.004101
5468754666.750610
5251760186.816389
5039917504.426021
4831528563.380223
4628480648.174673
4428915649.830773
4234429996.793555
4043816443.557417
3857597542.537475
3676161727.743346
3498581449.463881
3326170932.620625
2958219590.773335
2765827875.161914
2580069683.142510
2400864338.979352
2228005980.720709
2061570512.319973
1901655155.608762
1748117805.943918
1601120492.053668
1460493085.734261
1326528215.218351
1198814780.675239
1077786816.891187
963196365.829668
855088326.547263
753313831.186535
658006934.204826
571989880.556089
1424913369.356289
2333067596.286369
2640117363.035689
5338865792.170447
5335986573.570189
2850197217.055587
1935564029.316720
1821523604.351624
1281004122.185493
2732817667.228539
1251708161.431540
2658678827.073575
1768901249.526404
5336896444.727923
4219700868.622377
4889934467.684924
1891017878.942958
1581109562.832118
2438508679.937490
5263235483.441312
691862881.611739
3309527459.531056
3874694421.300760
4642215426.661384
3738178820.620629
1517249075.889655
4705929214.196196
1317145833.436136
4360996416.562262
3262098911.734323
1872299508.520178
2682878942.576560
1256228557.936702
1013851029.038858
2857095082.715502
1114876079.674802
2983340657.922563
4330873134.825072
1886599506.462909
3096840015.119529
1164125522.436477
3572832715.520900
2461389830.132854
1968120590.088036
2555282276.200776
1810470966.957213
1326343570.862984
1605967747.234049
2893832267.030815
2693574895.128172
4520012998.494968
4992688272.396545
3931547916.004700
4204584769.740354
5776658011.525846
1630759597.262335
2372924583.917040
4573945287.062242
4014801394.994792
2322521039.366968
2064078576.536292
4226950523.794093
3346379130.332796
4008666599.532073
822951763.156038
3796663519.501119
1098499378.409714
2031113405.696687
3006734772.503786
5176281591.292902
3532105602.449802
2342402043.699387
4770251390.995736
4124758599.997541
3792848500.843889
1779792737.838061
3387629666.187080
1658475789.803858
1046671837.801821
4056431708.527788
3603650907.333829
1606259766.551298
3073726462.114022
1152674653.760821
5713206620.759920
2298519073.269262
2884596738.230258
1952526422.515804
3106539754.785027
1375837217.132711
4340176922.622244
2989531604.975954
2098213193.709569
2889856791.062689
898703790.739188
1752024895.899276
1449413064.987676
4281828284.770442
1501522925.747886
1423349138.415450
3762935084.561548
2046079909.437963
6382565161.679198
5081295717.832987
4566915287.161762
4472556285.150987
2489279947.293239
1322994484.625821
2245230811.336722
2785439291.807146
3929782825.559931
2787778178.859528
3360328874.262410
4997738002.295260
4521880226.088803
3227446779.231388
5529561252.998089
3150015754.821613
1850243537.543172
2582611898.535525
3804336098.155237
1593521873.990172
2822089330.397971
3994211411.566806
2304067624.914773
1052143981.758495
2439992913.275656
6232957526.235758
6103874014.420084
2595506777.751411
4602806784.295604
2625652186.201165
1547438811.384369
3702593333.108136
1488764506.953856
1689767317.133435
2277540754.310812
989470846.646262
5544003458.820037
3802542523.741297
3747153769.416840
3338155997.906768
3201171116.865572
3197514996.916282
2848554503.461969
2854147583.878546
1783198096.950861
2071257190.024860
3461121498.715484
2546500465.277718
798567306.402062
3454523224.670756
5141580371.960727
3169295120.546772
1660216302.651184
2425271497.850390
2473122385.372396
2474953808.246770
2864464082.284286
3230411641.085392
3069436513.315700
2267702581.710313
2230601545.563556
1747362056.734355
3590072295.299957
5519021707.661159
3268709626.774799
6445236279.834533
919801645.885972
1464116692.269216
1195686872.544615
4316676394.536000
5463726369.270384
4783849267.032240
3047300497.575233
3531259890.230434
4384192521.046072
2999791986.952899
2095317583.967589
1531687096.900178
3661197979.944722
2132685116.431098
6147853064.539239
2173995724.303664
3099606472.105532
949350612.031038
1381443696.173065
1353497382.369147
2926226256.633193
1225976644.618330
1690484637.348250
4712597816.368081
1104139330.522134
3784107428.751017
5874964063.869712
2482961066.392379
2025609316.829073
3633795096.997773
4641321575.100034
781304336.008095
1006161760.799526
2734154992.422949
4056394707.456176
3867257378.588208
2828924037.994696
2169523594.185108
2604886005.121871
2952385494.446742
1225106302.528090
1999773836.051886
2201562612.063398
744726138.004906
2668922548.157995
4504012553.702138
1361025974.246709
4952798547.451636
4269593477.090376
1841178529.181353
3025245080.686753
1211121071.806894
1904734374.998949
2595568362.307610
2510363609.206799
1849008185.726432
2407534865.392354
3305369240.744798
3713247026.252562
1134099758.576230
1687445687.524776
4578973996.610103
1263617922.972422
5461434239.497171
3311250460.732786
5317677614.427279
2742195583.800188
2780190524.939569
1539716145.497046
3583691152.958567
1979470452.607926
2258542463.657181
2168420515.535978
1488792784.198615
1302169937.895595
3556934958.939844
690750850.317126
2928393018.217096
3646679009.943403
1857566245.527933
4281111674.216947
2171898024.411499
4828587024.059739
2263467798.664828
1956543329.342139
4915102027.397701
4091800769.027620
4806218651.156628
4798193872.101272
3914307985.147284
5012130601.155005
3431319037.027298
6021176352.513688
3947084979.107489
4689642031.739168
3823916522.632785
4935820494.603930
2496510017.030020
3014638042.374979
1659206713.662864
2739898767.484899
2625577171.141611
5148650582.423951
6005892776.072104
3256859773.922273
2400006232.258655
1791603305.254955
2057996224.499826
2286671322.195330
4457903067.826205
2518259232.240642
4830766368.201587
2444058849.393095
2198482938.024855
3091684079.646642
1131076392.931474
5605660221.271768
5098780487.425495
2995586510.567489
3527784361.251257
3917974362.870779
1598219030.633622
3199795308.034170
2062668467.591659
4099818066.046753
3419947811.157327
5791317847.813749
2531806268.942137
2548128529.676834
1689827770.815935
4400455717.138321
3391811322.222327
2699763725.795071
3250023825.997752
3469217734.219463
2898631176.857574
5661190393.510181
2793758214.543951
2639187841.186557
896240456.850758
2386603363.350561
2052156816.716059
5173839449.378774
2128537847.181246
3501953093.398490
3640456803.763308
3195874242.161929
2704811696.696190
5215673051.347177
2936797598.722653
2374433389.135948
832751254.669827
1937788583.417180
4466472949.153835
1550554467.564787
2791686665.118998
3068401823.665725
2833349197.807222
2235534351.538680
3618260403.636550
3700807246.882606
6693741730.787033
2954771898.937233
4116985475.861216
3088427908.723506
3879571733.656728
3309878868.968496
2436807549.482925
2702879187.307473
604213998.454526
2786238125.148708
3460224119.932313
2339216729.352453
2115111735.043054
2537919716.802412
2677965917.137026
2092621647.665345
2175445888.467264
3495210115.834713
1690819861.301988
1404789974.722904
3273387843.560933
3499981783.208292
2400849026.115290
3048695209.674460
3358484088.009112
3254369378.004186
1785787732.020678
1486420103.114154
3768562730.636014
3981725126.886741
2166198530.547513
4166385309.579172
1903266737.526569
2313516506.570927
1411411129.505652
3042640335.452592
4239319454.526772
1031933064.016987
3379829336.789940
3183717168.716502
3504093997.116757
969546084.022202
3128528419.389078
881744203.999630
2296366688.739915
2615952076.743984
2574846572.096596
4088839494.555068
1722122163.337563
1971181011.848087
4156702056.424541
5867244107.626809
1966299056.540793
4399085650.773997
4032606598.140258
