# vtk DataFile Version 2.0
patchtest_tri3_mix
ASCII
DATASET POLYDATA
POINTS 240 float
0.000000 -6.000000 0.000000
48.000000 -6.000000 0.000000
48.000000 6.000000 0.000000
0.000000 6.000000 0.000000
1.500000 -6.000000 0.000000
3.000000 -6.000000 0.000000
4.500000 -6.000000 0.000000
6.000000 -6.000000 0.000000
7.500000 -6.000000 0.000000
9.000000 -6.000000 0.000000
10.500000 -6.000000 0.000000
12.000000 -6.000000 0.000000
13.500000 -6.000000 0.000000
15.000000 -6.000000 0.000000
16.500000 -6.000000 0.000000
18.000000 -6.000000 0.000000
19.500000 -6.000000 0.000000
21.000000 -6.000000 0.000000
22.500000 -6.000000 0.000000
24.000000 -6.000000 0.000000
25.500000 -6.000000 0.000000
27.000000 -6.000000 0.000000
28.500000 -6.000000 0.000000
30.000000 -6.000000 0.000000
31.500000 -6.000000 0.000000
33.000000 -6.000000 0.000000
34.500000 -6.000000 0.000000
36.000000 -6.000000 0.000000
37.500000 -6.000000 0.000000
39.000000 -6.000000 0.000000
40.500000 -6.000000 0.000000
42.000000 -6.000000 0.000000
43.500000 -6.000000 0.000000
45.000000 -6.000000 0.000000
46.500000 -6.000000 0.000000
48.000000 -4.500000 0.000000
48.000000 -3.000000 0.000000
48.000000 -1.500000 0.000000
48.000000 -0.000000 0.000000
48.000000 1.500000 0.000000
48.000000 3.000000 0.000000
48.000000 4.500000 0.000000
46.500000 6.000000 0.000000
45.000000 6.000000 0.000000
43.500000 6.000000 0.000000
42.000000 6.000000 0.000000
40.500000 6.000000 0.000000
39.000000 6.000000 0.000000
37.500000 6.000000 0.000000
36.000000 6.000000 0.000000
34.500000 6.000000 0.000000
33.000000 6.000000 0.000000
31.500000 6.000000 0.000000
30.000000 6.000000 0.000000
28.500000 6.000000 0.000000
27.000000 6.000000 0.000000
25.500000 6.000000 0.000000
24.000000 6.000000 0.000000
22.500000 6.000000 0.000000
21.000000 6.000000 0.000000
19.500000 6.000000 0.000000
18.000000 6.000000 0.000000
16.500000 6.000000 0.000000
15.000000 6.000000 0.000000
13.500000 6.000000 0.000000
12.000000 6.000000 0.000000
10.500000 6.000000 0.000000
9.000000 6.000000 0.000000
7.500000 6.000000 0.000000
6.000000 6.000000 0.000000
4.500000 6.000000 0.000000
3.000000 6.000000 0.000000
1.500000 6.000000 0.000000
0.000000 4.500000 0.000000
0.000000 3.000000 0.000000
0.000000 1.500000 0.000000
0.000000 0.000000 0.000000
0.000000 -1.500000 0.000000
0.000000 -3.000000 0.000000
0.000000 -4.500000 0.000000
23.640827 2.546122 0.000000
1.696322 4.026584 0.000000
37.486423 -4.264391 0.000000
13.292404 -0.876328 0.000000
11.228980 -4.249332 0.000000
26.946354 2.504363 0.000000
34.532290 4.235573 0.000000
25.215702 -0.872836 0.000000
8.501563 4.244489 0.000000
35.181535 0.734513 0.000000
33.745448 -2.600120 0.000000
18.236499 -2.593569 0.000000
3.652206 -0.899609 0.000000
37.498907 4.292906 0.000000
18.283862 0.894518 0.000000
33.513656 0.683593 0.000000
25.415555 4.240082 0.000000
25.310594 2.520498 0.000000
42.765335 -1.026600 0.000000
6.889836 0.835548 0.000000
26.909033 0.780701 0.000000
15.095291 -0.863178 0.000000
41.805693 4.203802 0.000000
42.792609 -4.238815 0.000000
46.299858 -0.939773 0.000000
31.609684 4.215482 0.000000
18.145804 -4.254921 0.000000
40.913366 -4.236951 0.000000
35.980173 4.269760 0.000000
44.620567 -4.280865 0.000000
36.714232 -0.971342 0.000000
41.599279 2.382542 0.000000
46.293101 4.257498 0.000000
32.519274 -4.257142 0.000000
8.703441 -2.551245 0.000000
46.296495 2.539381 0.000000
5.074187 2.526819 0.000000
44.604283 -0.964773 0.000000
29.646228 -2.592812 0.000000
8.412609 2.541636 0.000000
25.698354 -2.569352 0.000000
16.884671 4.259246 0.000000
34.774634 2.466338 0.000000
18.612324 4.264000 0.000000
7.537012 -0.857123 0.000000
14.502528 -2.564864 0.000000
20.062484 0.893224 0.000000
21.933681 -2.621745 0.000000
30.733053 -0.954599 0.000000
30.084249 0.762612 0.000000
3.414699 0.869007 0.000000
20.091666 -2.604025 0.000000
28.545849 2.505794 0.000000
1.798589 -4.053078 0.000000
38.161719 0.760776 0.000000
20.353706 4.257965 0.000000
1.713135 -1.909227 0.000000
31.698312 -2.608372 0.000000
7.499216 -4.258454 0.000000
28.488260 0.783711 0.000000
33.089736 4.207970 0.000000
33.279557 2.421164 0.000000
41.607243 0.617576 0.000000
5.587395 -0.863217 0.000000
8.730977 0.834309 0.000000
13.532422 2.537178 0.000000
28.539892 4.238760 0.000000
31.717870 2.444312 0.000000
9.484824 -0.863754 0.000000
40.190164 2.363713 0.000000
36.173580 2.495242 0.000000
39.725282 -2.602309 0.000000
11.880239 4.234965 0.000000
28.796264 -0.923736 0.000000
20.291902 2.574433 0.000000
13.530253 4.241072 0.000000
44.710636 0.752724 0.000000
10.619699 -2.559545 0.000000
12.564367 -2.572348 0.000000
18.198139 -0.830624 0.000000
23.384130 -4.262106 0.000000
26.937277 -4.268123 0.000000
6.747860 2.532615 0.000000
18.619853 2.591717 0.000000
44.688822 2.493271 0.000000
43.218846 0.729960 0.000000
40.736364 -1.050346 0.000000
37.448074 2.544574 0.000000
11.414032 -0.872827 0.000000
41.859719 -2.603115 0.000000
10.632603 0.818194 0.000000
46.280362 0.796302 0.000000
28.751084 -4.275935 0.000000
20.864815 -0.828928 0.000000
25.264092 0.820251 0.000000
25.161231 -4.265616 0.000000
5.059991 4.236525 0.000000
31.773386 0.723840 0.000000
44.708528 4.232852 0.000000
32.733943 -0.990041 0.000000
30.139546 2.479624 0.000000
21.601005 -4.274799 0.000000
30.086340 4.228112 0.000000
35.947747 -4.262283 0.000000
26.970020 -0.908510 0.000000
1.709990 2.010892 0.000000
38.803628 2.478658 0.000000
38.671581 -0.964472 0.000000
16.942754 2.572082 0.000000
37.714818 -2.612159 0.000000
40.442331 4.192274 0.000000
14.534490 0.819342 0.000000
1.777820 -0.006998 0.000000
43.993363 -2.624677 0.000000
3.739214 -4.314565 0.000000
34.758512 -0.956725 0.000000
43.101810 2.462417 0.000000
43.221509 4.225378 0.000000
5.628252 -4.259413 0.000000
16.392021 -2.569847 0.000000
6.826227 -2.550254 0.000000
5.114294 0.822317 0.000000
30.630152 -4.262727 0.000000
15.251560 2.544128 0.000000
46.318630 -4.269434 0.000000
19.537089 -0.886955 0.000000
19.852496 -4.264307 0.000000
22.177273 -0.918192 0.000000
36.678187 0.703578 0.000000
6.778773 4.237462 0.000000
13.059121 -4.255402 0.000000
35.733986 -2.611955 0.000000
21.841245 0.884779 0.000000
39.025216 4.241303 0.000000
12.586352 0.812432 0.000000
10.091114 2.539869 0.000000
9.360971 -4.255030 0.000000
39.845990 0.629911 0.000000
23.557033 0.851030 0.000000
3.385378 2.612174 0.000000
16.748609 -0.867711 0.000000
46.022938 -2.615373 0.000000
27.651015 -2.590124 0.000000
3.247801 -2.652636 0.000000
34.301955 -4.275995 0.000000
14.803584 -4.247994 0.000000
3.351132 4.293263 0.000000
15.187730 4.242891 0.000000
26.984842 4.237578 0.000000
16.476755 -4.248661 0.000000
21.965255 2.571403 0.000000
11.801865 2.525702 0.000000
39.119129 -4.276093 0.000000
23.597839 -0.862031 0.000000
10.204841 4.245178 0.000000
16.445223 0.842901 0.000000
22.081414 4.259566 0.000000
4.997080 -2.566611 0.000000
23.810954 -2.580933 0.000000
23.779197 4.251792 0.000000
POLYGONS 398 1592
3 0 4 79
3 133 4 5
3 194 133 5
3 133 79 4
3 6 198 194
3 198 6 7
3 5 6 194
3 194 198 237
3 7 8 138
3 9 10 216
3 8 9 138
3 114 138 216
3 138 9 216
3 158 157 84
3 84 216 10
3 11 84 10
3 138 200 198
3 7 138 198
3 157 216 84
3 136 78 133
3 133 78 79
3 133 194 223
3 136 133 223
3 77 136 192
3 136 77 78
3 130 192 92
3 92 192 136
3 136 223 92
3 77 192 76
3 223 237 92
3 237 200 143
3 194 237 223
3 114 157 148
3 198 200 237
3 114 200 138
3 200 114 124
3 201 92 143
3 143 200 124
3 144 124 148
3 124 114 148
3 157 168 148
3 99 143 124
3 168 157 158
3 237 143 92
3 216 157 114
3 168 170 148
3 84 11 210
3 12 13 225
3 13 14 229
3 210 225 125
3 210 12 225
3 229 15 106
3 229 225 13
3 15 229 14
3 225 229 199
3 210 158 84
3 16 17 206
3 18 19 160
3 17 18 181
3 91 106 206
3 106 16 206
3 206 181 131
3 160 181 18
3 17 181 206
3 229 106 91
3 160 175 238
3 16 106 15
3 181 160 127
3 225 199 125
3 125 158 210
3 125 199 101
3 158 125 83
3 191 83 101
3 83 125 101
3 101 220 235
3 91 159 220
3 199 220 101
3 168 83 214
3 220 199 91
3 158 83 168
3 205 91 131
3 91 206 131
3 131 127 173
3 238 127 160
3 91 199 229
3 238 207 127
3 159 205 94
3 205 131 173
3 173 207 212
3 233 207 238
3 127 207 173
3 173 126 205
3 233 174 218
3 91 205 159
3 127 131 181
3 159 94 220
3 238 87 233
3 210 11 12
3 233 218 207
3 76 192 75
3 192 130 185
3 192 185 75
3 81 74 185
3 185 74 75
3 219 81 185
3 219 185 130
3 130 116 219
3 116 176 219
3 130 201 116
3 201 99 162
3 92 201 130
3 144 170 215
3 143 99 201
3 144 99 124
3 99 144 119
3 162 176 116
3 162 99 119
3 88 119 215
3 215 119 144
3 231 215 170
3 209 162 119
3 170 214 231
3 201 162 116
3 170 144 148
3 234 215 231
3 72 73 81
3 81 73 74
3 81 219 226
3 71 81 226
3 72 3 73
3 70 71 226
3 72 81 71
3 226 176 70
3 69 176 209
3 226 219 176
3 88 234 67
3 176 162 209
3 88 209 119
3 68 209 88
3 68 69 209
3 66 67 234
3 68 88 67
3 66 234 152
3 176 69 70
3 215 234 88
3 234 231 152
3 145 214 191
3 168 214 170
3 83 191 214
3 203 191 235
3 155 152 145
3 152 231 145
3 227 145 203
3 188 203 235
3 145 191 203
3 188 121 203
3 235 94 188
3 145 231 214
3 94 126 163
3 235 220 94
3 212 218 230
3 212 126 173
3 126 94 205
3 126 212 154
3 123 163 154
3 154 163 126
3 135 154 230
3 230 154 212
3 218 80 230
3 188 163 123
3 218 174 80
3 94 163 188
3 191 101 235
3 236 230 80
3 63 155 227
3 155 145 227
3 227 203 121
3 62 227 121
3 64 65 155
3 62 63 227
3 64 155 63
3 121 61 62
3 155 65 152
3 60 123 135
3 121 188 123
3 236 239 58
3 236 135 230
3 154 135 123
3 59 135 236
3 60 61 123
3 58 59 236
3 60 135 59
3 239 57 58
3 123 61 121
3 236 80 239
3 80 97 239
3 152 65 66
3 212 207 218
3 175 160 19
3 20 21 161
3 21 22 161
3 120 175 161
3 175 20 161
3 172 23 202
3 172 161 22
3 23 172 22
3 222 161 172
3 20 175 19
3 24 25 113
3 26 27 183
3 25 26 224
3 202 118 172
3 202 24 113
3 113 224 90
3 183 224 26
3 25 224 113
3 211 224 183
3 211 183 82
3 24 202 23
3 137 202 113
3 184 120 222
3 222 120 161
3 222 172 118
3 153 222 118
3 184 100 87
3 184 87 120
3 129 153 128
3 153 184 222
3 118 128 153
3 153 139 184
3 118 137 128
3 87 238 120
3 128 179 177
3 179 137 90
3 179 90 195
3 90 137 113
3 224 211 90
3 195 90 211
3 89 95 195
3 195 95 179
3 134 208 110
3 195 110 89
3 195 211 110
3 208 89 110
3 110 211 189
3 179 128 137
3 202 137 118
3 177 179 95
3 183 27 82
3 174 233 87
3 28 29 82
3 29 30 232
3 189 82 232
3 82 29 232
3 107 31 103
3 107 232 30
3 31 107 30
3 151 232 107
3 28 82 27
3 32 33 109
3 34 1 35
3 33 34 204
3 193 103 109
3 103 32 109
3 204 35 36
3 204 109 33
3 35 204 34
3 221 109 204
3 32 103 31
3 107 103 169
3 107 169 151
3 151 189 232
3 151 169 166
3 189 151 187
3 134 110 187
3 217 187 166
3 166 142 217
3 98 142 166
3 187 151 166
3 134 187 217
3 166 169 98
3 189 187 110
3 117 193 221
3 193 109 221
3 36 37 221
3 169 103 193
3 104 221 37
3 165 98 117
3 98 193 117
3 117 104 156
3 38 104 37
3 221 104 117
3 98 165 142
3 193 98 169
3 204 36 221
3 38 171 104
3 82 189 211
3 149 217 142
3 184 139 100
3 153 129 139
3 139 129 132
3 100 139 85
3 96 239 97
3 174 100 97
3 96 97 85
3 97 100 85
3 139 132 85
3 132 228 85
3 129 180 132
3 100 174 87
3 147 177 141
3 147 180 129
3 95 122 141
3 141 177 95
3 122 95 89
3 147 141 140
3 132 180 182
3 180 147 105
3 86 141 122
3 105 147 140
3 140 141 86
3 105 140 51
3 122 150 108
3 147 129 177
3 128 177 129
3 180 105 182
3 56 96 228
3 96 85 228
3 228 132 146
3 54 228 146
3 56 57 96
3 54 55 228
3 56 228 55
3 146 53 54
3 57 239 96
3 52 53 182
3 182 53 146
3 105 51 52
3 108 86 122
3 86 50 140
3 50 86 108
3 52 182 105
3 49 50 108
3 140 50 51
3 108 93 49
3 182 146 132
3 122 89 150
3 80 174 97
3 142 111 149
3 186 217 149
3 149 111 190
3 217 186 134
3 93 150 167
3 208 167 150
3 167 186 93
3 149 213 186
3 134 186 167
3 149 190 213
3 190 111 102
3 150 89 208
3 164 165 156
3 156 165 117
3 156 171 164
3 39 171 38
3 156 104 171
3 39 115 171
3 197 196 164
3 164 196 165
3 164 115 178
3 40 115 39
3 164 171 115
3 111 196 102
3 165 196 111
3 134 167 208
3 40 112 115
3 47 93 213
3 213 93 186
3 46 190 102
3 213 190 46
3 47 48 93
3 45 46 102
3 47 213 46
3 102 197 45
3 48 49 93
3 44 197 178
3 197 102 196
3 178 112 43
3 41 112 40
3 178 115 112
3 41 42 112
3 43 44 178
3 2 42 41
3 43 112 42
3 197 44 45
3 164 178 197
3 93 108 150
3 142 165 111
3 238 175 120
POINT_DATA 240
SCALARS P float 1
LOOKUP_TABLE default
830.373388
-154.403174
5.487499
-531.050026
864.292059
962.920625
881.508402
872.613884
826.194754
863.185965
714.599914
783.317490
709.301984
689.078678
628.108191
674.506613
527.665738
635.157856
467.231198
539.531819
446.700180
452.378285
361.817218
430.117377
305.710787
303.728700
282.699987
263.514198
191.230511
198.208309
125.829958
170.858033
63.828600
27.354923
100.928979
144.017902
-89.825746
98.496565
9.515435
94.659149
6.993543
4.273627
-57.846179
-49.721151
-128.108236
-83.636733
-200.527326
-137.412061
-264.421156
-239.413231
-275.576164
-355.968773
-292.558962
-414.202103
-395.225029
-430.229843
-498.052262
-448.605824
-613.802955
-457.209387
-717.988287
-483.574513
-816.644264
-534.487061
-852.589427
-644.311518
-894.421865
-678.642485
-997.847854
-711.873749
-1111.555307
-646.164270
-1312.882751
-773.863979
-658.097689
-0.598975
-268.736202
563.339311
228.305136
972.870856
-187.370353
-531.381414
151.183572
57.555172
574.871340
-97.270418
-220.781818
-37.117202
-574.190968
24.025933
135.905835
262.234026
125.501616
-94.728725
-76.236447
-61.410281
-392.593405
-255.592517
29.347017
-87.750497
-127.570380
177.909707
-141.340124
64.440182
-47.097966
-342.022080
452.922938
91.471927
-193.684585
105.009105
54.885834
213.103418
-0.178541
272.492139
371.260787
-77.718820
-348.236438
35.893453
209.332422
-338.106485
219.816243
-410.039077
-513.697301
-478.361314
80.781682
262.067047
-120.209393
242.739534
73.042750
-62.093801
-108.865205
258.713671
-274.776042
675.044946
-2.819111
-368.532831
265.519115
107.979306
575.104787
-4.915497
-138.653361
131.036721
49.003417
164.042953
-115.189898
-338.568328
-361.518476
-296.747522
136.761611
-471.262876
441.293950
73.475770
-524.876616
11.101479
-254.420603
-485.893181
78.620708
284.692603
362.297316
231.309392
387.871057
340.968030
-394.893887
-235.946364
54.042744
-111.162521
-2.122524
-682.662837
125.583877
79.512753
-131.415087
-46.570758
282.053566
283.937624
0.267973
308.902535
-610.781355
-42.762850
-62.166406
73.476682
-33.910738
379.248950
-167.942863
194.238274
149.751028
-372.584506
439.507159
51.157004
-326.921624
70.588175
-50.148881
-116.890410
24.275831
-6.239972
635.626017
21.281288
-186.785344
-36.298002
662.566020
299.211851
371.793976
-164.239384
236.687829
-238.046504
-55.889555
-97.104663
416.480836
-104.521113
-93.847792
-607.483943
471.536874
119.390120
-47.743977
-202.052612
-68.299605
-332.193530
570.772389
-37.082677
-120.884700
-409.912903
-11.910880
65.738664
141.553137
450.984230
172.653173
535.219736
-724.589880
-524.106911
-242.407910
438.302846
-241.343437
-309.383375
152.178892
214.100256
-570.973659
-91.952964
-427.454943
346.508802
208.774218
-303.514845
