# vtk DataFile Version 2.0
patchtest_tri3_mix
ASCII
DATASET POLYDATA
POINTS 40 float
0.000000 0.000000 0.000000
1.000000 0.000000 0.000000
1.000000 1.000000 0.000000
0.000000 1.000000 0.000000
0.250000 0.000000 0.000000
0.500000 0.000000 0.000000
0.750000 0.000000 0.000000
1.000000 0.250000 0.000000
1.000000 0.500000 0.000000
1.000000 0.750000 0.000000
0.750000 1.000000 0.000000
0.500000 1.000000 0.000000
0.250000 1.000000 0.000000
0.000000 0.750000 0.000000
0.000000 0.500000 0.000000
0.000000 0.250000 0.000000
0.127807 0.386327 0.000000
0.439269 0.328754 0.000000
0.838981 0.320592 0.000000
0.546147 0.180937 0.000000
0.856219 0.858064 0.000000
0.299527 0.465508 0.000000
0.659637 0.569712 0.000000
0.350952 0.646900 0.000000
0.863731 0.644336 0.000000
0.223113 0.773154 0.000000
0.154210 0.599864 0.000000
0.805919 0.482307 0.000000
0.142623 0.142682 0.000000
0.721028 0.740281 0.000000
0.258011 0.276887 0.000000
0.364959 0.138240 0.000000
0.878343 0.127434 0.000000
0.487264 0.510151 0.000000
0.712901 0.187867 0.000000
0.613622 0.872940 0.000000
0.114535 0.886845 0.000000
0.636739 0.369562 0.000000
0.527803 0.706094 0.000000
0.394596 0.847764 0.000000
POLYGONS 62 248
3 0 4 28
3 15 28 16
3 28 15 0
3 30 16 28
3 15 16 14
3 28 4 31
3 17 31 19
3 5 31 4
3 30 17 21
3 17 30 31
3 21 17 33
3 30 21 16
3 17 37 33
3 31 30 28
3 16 21 26
3 14 26 13
3 14 16 26
3 13 36 3
3 25 36 13
3 3 36 12
3 13 26 25
3 39 23 38
3 23 25 26
3 25 39 12
3 39 25 23
3 12 39 11
3 25 12 36
3 23 33 38
3 26 21 23
3 33 23 21
3 19 31 5
3 19 6 34
3 6 19 5
3 27 37 18
3 34 37 19
3 34 18 37
3 37 27 22
3 34 6 32
3 22 33 37
3 32 1 7
3 1 32 6
3 18 7 8
3 7 18 32
3 18 8 27
3 32 18 34
3 27 8 24
3 38 22 29
3 38 33 22
3 35 11 39
3 35 38 29
3 35 29 20
3 11 35 10
3 22 24 29
3 39 38 35
3 24 9 20
3 9 24 8
3 10 20 2
3 10 35 20
3 2 20 9
3 20 29 24
3 22 27 24
3 17 19 37
POINT_DATA 40
SCALARS P float 1
LOOKUP_TABLE default
470131747.947846
2511054405.515823
7089484407.085819
3151885497.657879
840739730.833245
1293863820.179001
1851721319.429083
3435257639.627709
4506048969.011120
5732818958.134379
5964842231.838235
4928075947.519979
3988077845.640086
2258928577.073546
1520830989.794551
925349024.729940
1495691982.028978
2070096792.466279
3188892898.942144
1885025194.746461
5674708604.918748
2135936439.497167
3593206059.826095
2904739413.266636
4655304768.110719
2983644688.653897
2179918081.967968
3729675311.624703
944680443.852886
4556050688.869205
1489049966.646698
1358942768.972568
2598039397.624004
2812446587.636455
2342994339.790754
4761635953.308366
3073011297.012259
2748728291.069402
3707343530.702893
3838319748.108345
