# vtk DataFile Version 2.0
patchtest_tri3_mix
ASCII
DATASET POLYDATA
POINTS 22 float
0.000000 -0.500000 0.000000
1.000000 -0.500000 0.000000
1.000000 0.500000 0.000000
0.000000 0.500000 0.000000
0.333333 -0.500000 0.000000
0.666667 -0.500000 0.000000
1.000000 -0.166667 0.000000
1.000000 0.166667 0.000000
0.666667 0.500000 0.000000
0.333333 0.500000 0.000000
0.000000 0.166667 0.000000
0.000000 -0.166667 0.000000
0.163007 0.323633 0.000000
0.329081 -0.203381 0.000000
0.517849 -0.349041 0.000000
0.827097 0.317638 0.000000
0.375260 0.223359 0.000000
0.613143 -0.138347 0.000000
0.814335 -0.000436 0.000000
0.805856 -0.305720 0.000000
0.203056 0.023278 0.000000
0.629368 0.176376 0.000000
POLYGONS 30 120
3 11 0 13
3 13 4 14
3 4 13 0
3 14 4 5
3 16 13 17
3 11 13 20
3 10 12 3
3 12 10 20
3 3 12 9
3 16 9 12
3 16 20 13
3 8 9 16
3 16 12 20
3 10 11 20
3 17 13 14
3 14 19 17
3 19 14 5
3 19 1 6
3 1 19 5
3 17 19 18
3 18 19 6
3 8 21 15
3 18 21 17
3 15 21 18
3 21 8 16
3 15 7 2
3 7 15 18
3 15 2 8
3 18 6 7
3 17 21 16
POINT_DATA 22
SCALARS P float 1
LOOKUP_TABLE default
3087.179280
-70.729340
-469.661953
-1100.980894
1683.998578
711.579481
-280.544858
-878.645452
-1457.337713
-2242.037688
1347.093986
519.580785
-3593.405509
1123.037950
1156.722730
879.397198
443.986309
67.554138
663.576425
572.288019
-983.724076
-926.423654
