# vtk DataFile Version 2.0
patchtest_tri3_mix
ASCII
DATASET POLYDATA
POINTS 27 float
0.000000 -0.500000 0.000000
1.000000 -0.500000 0.000000
1.000000 0.500000 0.000000
0.000000 0.500000 0.000000
0.250000 -0.500000 0.000000
0.500000 -0.500000 0.000000
0.750000 -0.500000 0.000000
1.000000 -0.250000 0.000000
1.000000 -0.000000 0.000000
1.000000 0.250000 0.000000
0.750000 0.500000 0.000000
0.500000 0.500000 0.000000
0.250000 0.500000 0.000000
0.000000 0.250000 0.000000
0.000000 0.000000 0.000000
0.000000 -0.250000 0.000000
0.622791 0.279137 0.000000
0.220097 -0.142117 0.000000
0.814137 0.054268 0.000000
0.487641 -0.234495 0.000000
0.409770 0.267554 0.000000
0.813677 0.268491 0.000000
0.748410 -0.146532 0.000000
0.387831 0.012406 0.000000
0.204123 0.173528 0.000000
0.595991 0.043858 0.000000
0.740985 -0.328783 0.000000
POLYGONS 36 144
3 15 4 17
3 4 15 0
3 15 17 14
3 4 5 19
3 19 5 26
3 4 19 17
3 17 19 23
3 13 14 24
3 3 13 12
3 24 23 20
3 24 14 17
3 12 20 11
3 20 12 24
3 20 23 25
3 24 12 13
3 17 23 24
3 23 19 25
3 19 22 25
3 19 26 22
3 22 26 7
3 18 25 22
3 1 7 26
3 8 22 7
3 26 6 1
3 5 6 26
3 18 22 8
3 11 16 10
3 11 20 16
3 10 16 21
3 18 9 21
3 9 18 8
3 21 2 10
3 2 21 9
3 18 21 16
3 16 25 18
3 16 20 25
POINT_DATA 27
SCALARS P float 1
LOOKUP_TABLE default
596.409375
73.122542
44.944816
-359.454072
68.986963
273.229988
-199.542962
-117.352959
11.038770
-184.134612
-154.612700
-14.333514
-380.974394
-38.173265
126.191456
74.272563
-761.201620
118.217737
209.144264
86.325105
375.271734
475.845695
-374.373768
47.513839
-503.824153
65.431245
446.953386
